+ 0.1 1 2 cbr 1000 ------- 0 1.0 2.0 0 0
- 0.1 1 2 cbr 1000 ------- 0 1.0 2.0 0 0
+ 0.100889 1 2 cbr 1000 ------- 0 1.0 2.0 1 1
- 0.100889 1 2 cbr 1000 ------- 0 1.0 2.0 1 1
+ 0.101778 1 2 cbr 1000 ------- 0 1.0 2.0 2 2
- 0.101778 1 2 cbr 1000 ------- 0 1.0 2.0 2 2
+ 0.102667 1 2 cbr 1000 ------- 0 1.0 2.0 3 3
- 0.102667 1 2 cbr 1000 ------- 0 1.0 2.0 3 3
+ 0.103556 1 2 cbr 1000 ------- 0 1.0 2.0 4 4
- 0.103556 1 2 cbr 1000 ------- 0 1.0 2.0 4 4
+ 0.104444 1 2 cbr 1000 ------- 0 1.0 2.0 5 5
- 0.104444 1 2 cbr 1000 ------- 0 1.0 2.0 5 5
+ 0.105333 1 2 cbr 1000 ------- 0 1.0 2.0 6 6
- 0.105333 1 2 cbr 1000 ------- 0 1.0 2.0 6 6
+ 0.106222 1 2 cbr 1000 ------- 0 1.0 2.0 7 7
- 0.106222 1 2 cbr 1000 ------- 0 1.0 2.0 7 7
+ 0.107111 1 2 cbr 1000 ------- 0 1.0 2.0 8 8
- 0.107111 1 2 cbr 1000 ------- 0 1.0 2.0 8 8
+ 0.108 1 2 cbr 1000 ------- 0 1.0 2.0 9 9
- 0.108 1 2 cbr 1000 ------- 0 1.0 2.0 9 9
+ 0.108889 1 2 cbr 1000 ------- 0 1.0 2.0 10 10
- 0.108889 1 2 cbr 1000 ------- 0 1.0 2.0 10 10
+ 0.109778 1 2 cbr 1000 ------- 0 1.0 2.0 11 11
- 0.109778 1 2 cbr 1000 ------- 0 1.0 2.0 11 11
+ 0.110667 1 2 cbr 1000 ------- 0 1.0 2.0 12 12
- 0.110667 1 2 cbr 1000 ------- 0 1.0 2.0 12 12
r 0.1108 1 2 cbr 1000 ------- 0 1.0 2.0 0 0
+ 0.111556 1 2 cbr 1000 ------- 0 1.0 2.0 13 13
- 0.111556 1 2 cbr 1000 ------- 0 1.0 2.0 13 13
r 0.111689 1 2 cbr 1000 ------- 0 1.0 2.0 1 1
+ 0.112444 1 2 cbr 1000 ------- 0 1.0 2.0 14 14
- 0.112444 1 2 cbr 1000 ------- 0 1.0 2.0 14 14
r 0.112578 1 2 cbr 1000 ------- 0 1.0 2.0 2 2
+ 0.113333 1 2 cbr 1000 ------- 0 1.0 2.0 15 15
- 0.113333 1 2 cbr 1000 ------- 0 1.0 2.0 15 15
r 0.113467 1 2 cbr 1000 ------- 0 1.0 2.0 3 3
+ 0.114222 1 2 cbr 1000 ------- 0 1.0 2.0 16 16
- 0.114222 1 2 cbr 1000 ------- 0 1.0 2.0 16 16
r 0.114356 1 2 cbr 1000 ------- 0 1.0 2.0 4 4
+ 0.115111 1 2 cbr 1000 ------- 0 1.0 2.0 17 17
- 0.115111 1 2 cbr 1000 ------- 0 1.0 2.0 17 17
r 0.115244 1 2 cbr 1000 ------- 0 1.0 2.0 5 5
+ 0.116 1 2 cbr 1000 ------- 0 1.0 2.0 18 18
- 0.116 1 2 cbr 1000 ------- 0 1.0 2.0 18 18
r 0.116133 1 2 cbr 1000 ------- 0 1.0 2.0 6 6
+ 0.116889 1 2 cbr 1000 ------- 0 1.0 2.0 19 19
- 0.116889 1 2 cbr 1000 ------- 0 1.0 2.0 19 19
r 0.117022 1 2 cbr 1000 ------- 0 1.0 2.0 7 7
+ 0.117778 1 2 cbr 1000 ------- 0 1.0 2.0 20 20
- 0.117778 1 2 cbr 1000 ------- 0 1.0 2.0 20 20
r 0.117911 1 2 cbr 1000 ------- 0 1.0 2.0 8 8
+ 0.118667 1 2 cbr 1000 ------- 0 1.0 2.0 21 21
- 0.118667 1 2 cbr 1000 ------- 0 1.0 2.0 21 21
r 0.1188 1 2 cbr 1000 ------- 0 1.0 2.0 9 9
+ 0.119556 1 2 cbr 1000 ------- 0 1.0 2.0 22 22
- 0.119556 1 2 cbr 1000 ------- 0 1.0 2.0 22 22
r 0.119689 1 2 cbr 1000 ------- 0 1.0 2.0 10 10
+ 0.120444 1 2 cbr 1000 ------- 0 1.0 2.0 23 23
- 0.120444 1 2 cbr 1000 ------- 0 1.0 2.0 23 23
r 0.120578 1 2 cbr 1000 ------- 0 1.0 2.0 11 11
+ 0.121333 1 2 cbr 1000 ------- 0 1.0 2.0 24 24
- 0.121333 1 2 cbr 1000 ------- 0 1.0 2.0 24 24
r 0.121467 1 2 cbr 1000 ------- 0 1.0 2.0 12 12
+ 0.122222 1 2 cbr 1000 ------- 0 1.0 2.0 25 25
- 0.122222 1 2 cbr 1000 ------- 0 1.0 2.0 25 25
r 0.122356 1 2 cbr 1000 ------- 0 1.0 2.0 13 13
+ 0.123111 1 2 cbr 1000 ------- 0 1.0 2.0 26 26
- 0.123111 1 2 cbr 1000 ------- 0 1.0 2.0 26 26
r 0.123244 1 2 cbr 1000 ------- 0 1.0 2.0 14 14
+ 0.124 1 2 cbr 1000 ------- 0 1.0 2.0 27 27
- 0.124 1 2 cbr 1000 ------- 0 1.0 2.0 27 27
r 0.124133 1 2 cbr 1000 ------- 0 1.0 2.0 15 15
+ 0.124889 1 2 cbr 1000 ------- 0 1.0 2.0 28 28
- 0.124889 1 2 cbr 1000 ------- 0 1.0 2.0 28 28
r 0.125022 1 2 cbr 1000 ------- 0 1.0 2.0 16 16
+ 0.125778 1 2 cbr 1000 ------- 0 1.0 2.0 29 29
- 0.125778 1 2 cbr 1000 ------- 0 1.0 2.0 29 29
r 0.125911 1 2 cbr 1000 ------- 0 1.0 2.0 17 17
+ 0.126667 1 2 cbr 1000 ------- 0 1.0 2.0 30 30
- 0.126667 1 2 cbr 1000 ------- 0 1.0 2.0 30 30
r 0.1268 1 2 cbr 1000 ------- 0 1.0 2.0 18 18
+ 0.127556 1 2 cbr 1000 ------- 0 1.0 2.0 31 31
- 0.127556 1 2 cbr 1000 ------- 0 1.0 2.0 31 31
r 0.127689 1 2 cbr 1000 ------- 0 1.0 2.0 19 19
+ 0.128444 1 2 cbr 1000 ------- 0 1.0 2.0 32 32
- 0.128444 1 2 cbr 1000 ------- 0 1.0 2.0 32 32
r 0.128578 1 2 cbr 1000 ------- 0 1.0 2.0 20 20
+ 0.129333 1 2 cbr 1000 ------- 0 1.0 2.0 33 33
- 0.129333 1 2 cbr 1000 ------- 0 1.0 2.0 33 33
r 0.129467 1 2 cbr 1000 ------- 0 1.0 2.0 21 21
+ 0.130222 1 2 cbr 1000 ------- 0 1.0 2.0 34 34
- 0.130222 1 2 cbr 1000 ------- 0 1.0 2.0 34 34
r 0.130356 1 2 cbr 1000 ------- 0 1.0 2.0 22 22
+ 0.131111 1 2 cbr 1000 ------- 0 1.0 2.0 35 35
- 0.131111 1 2 cbr 1000 ------- 0 1.0 2.0 35 35
r 0.131244 1 2 cbr 1000 ------- 0 1.0 2.0 23 23
+ 0.132 1 2 cbr 1000 ------- 0 1.0 2.0 36 36
- 0.132 1 2 cbr 1000 ------- 0 1.0 2.0 36 36
r 0.132133 1 2 cbr 1000 ------- 0 1.0 2.0 24 24
+ 0.132889 1 2 cbr 1000 ------- 0 1.0 2.0 37 37
- 0.132889 1 2 cbr 1000 ------- 0 1.0 2.0 37 37
r 0.133022 1 2 cbr 1000 ------- 0 1.0 2.0 25 25
+ 0.133778 1 2 cbr 1000 ------- 0 1.0 2.0 38 38
- 0.133778 1 2 cbr 1000 ------- 0 1.0 2.0 38 38
r 0.133911 1 2 cbr 1000 ------- 0 1.0 2.0 26 26
+ 0.134667 1 2 cbr 1000 ------- 0 1.0 2.0 39 39
- 0.134667 1 2 cbr 1000 ------- 0 1.0 2.0 39 39
r 0.1348 1 2 cbr 1000 ------- 0 1.0 2.0 27 27
+ 0.135556 1 2 cbr 1000 ------- 0 1.0 2.0 40 40
- 0.135556 1 2 cbr 1000 ------- 0 1.0 2.0 40 40
r 0.135689 1 2 cbr 1000 ------- 0 1.0 2.0 28 28
+ 0.136444 1 2 cbr 1000 ------- 0 1.0 2.0 41 41
- 0.136444 1 2 cbr 1000 ------- 0 1.0 2.0 41 41
r 0.136578 1 2 cbr 1000 ------- 0 1.0 2.0 29 29
+ 0.137333 1 2 cbr 1000 ------- 0 1.0 2.0 42 42
- 0.137333 1 2 cbr 1000 ------- 0 1.0 2.0 42 42
r 0.137467 1 2 cbr 1000 ------- 0 1.0 2.0 30 30
+ 0.138222 1 2 cbr 1000 ------- 0 1.0 2.0 43 43
- 0.138222 1 2 cbr 1000 ------- 0 1.0 2.0 43 43
r 0.138356 1 2 cbr 1000 ------- 0 1.0 2.0 31 31
+ 0.139111 1 2 cbr 1000 ------- 0 1.0 2.0 44 44
- 0.139111 1 2 cbr 1000 ------- 0 1.0 2.0 44 44
r 0.139244 1 2 cbr 1000 ------- 0 1.0 2.0 32 32
+ 0.14 1 2 cbr 1000 ------- 0 1.0 2.0 45 45
- 0.14 1 2 cbr 1000 ------- 0 1.0 2.0 45 45
r 0.140133 1 2 cbr 1000 ------- 0 1.0 2.0 33 33
+ 0.140889 1 2 cbr 1000 ------- 0 1.0 2.0 46 46
- 0.140889 1 2 cbr 1000 ------- 0 1.0 2.0 46 46
r 0.141022 1 2 cbr 1000 ------- 0 1.0 2.0 34 34
+ 0.141778 1 2 cbr 1000 ------- 0 1.0 2.0 47 47
- 0.141778 1 2 cbr 1000 ------- 0 1.0 2.0 47 47
r 0.141911 1 2 cbr 1000 ------- 0 1.0 2.0 35 35
+ 0.142667 1 2 cbr 1000 ------- 0 1.0 2.0 48 48
- 0.142667 1 2 cbr 1000 ------- 0 1.0 2.0 48 48
r 0.1428 1 2 cbr 1000 ------- 0 1.0 2.0 36 36
+ 0.143556 1 2 cbr 1000 ------- 0 1.0 2.0 49 49
- 0.143556 1 2 cbr 1000 ------- 0 1.0 2.0 49 49
r 0.143689 1 2 cbr 1000 ------- 0 1.0 2.0 37 37
+ 0.144444 1 2 cbr 1000 ------- 0 1.0 2.0 50 50
- 0.144444 1 2 cbr 1000 ------- 0 1.0 2.0 50 50
r 0.144578 1 2 cbr 1000 ------- 0 1.0 2.0 38 38
+ 0.145333 1 2 cbr 1000 ------- 0 1.0 2.0 51 51
- 0.145333 1 2 cbr 1000 ------- 0 1.0 2.0 51 51
r 0.145467 1 2 cbr 1000 ------- 0 1.0 2.0 39 39
+ 0.146222 1 2 cbr 1000 ------- 0 1.0 2.0 52 52
- 0.146222 1 2 cbr 1000 ------- 0 1.0 2.0 52 52
r 0.146356 1 2 cbr 1000 ------- 0 1.0 2.0 40 40
+ 0.147111 1 2 cbr 1000 ------- 0 1.0 2.0 53 53
- 0.147111 1 2 cbr 1000 ------- 0 1.0 2.0 53 53
r 0.147244 1 2 cbr 1000 ------- 0 1.0 2.0 41 41
+ 0.148 1 2 cbr 1000 ------- 0 1.0 2.0 54 54
- 0.148 1 2 cbr 1000 ------- 0 1.0 2.0 54 54
r 0.148133 1 2 cbr 1000 ------- 0 1.0 2.0 42 42
+ 0.148889 1 2 cbr 1000 ------- 0 1.0 2.0 55 55
- 0.148889 1 2 cbr 1000 ------- 0 1.0 2.0 55 55
r 0.149022 1 2 cbr 1000 ------- 0 1.0 2.0 43 43
+ 0.149778 1 2 cbr 1000 ------- 0 1.0 2.0 56 56
- 0.149778 1 2 cbr 1000 ------- 0 1.0 2.0 56 56
r 0.149911 1 2 cbr 1000 ------- 0 1.0 2.0 44 44
+ 0.150667 1 2 cbr 1000 ------- 0 1.0 2.0 57 57
- 0.150667 1 2 cbr 1000 ------- 0 1.0 2.0 57 57
r 0.1508 1 2 cbr 1000 ------- 0 1.0 2.0 45 45
+ 0.151556 1 2 cbr 1000 ------- 0 1.0 2.0 58 58
- 0.151556 1 2 cbr 1000 ------- 0 1.0 2.0 58 58
r 0.151689 1 2 cbr 1000 ------- 0 1.0 2.0 46 46
+ 0.152444 1 2 cbr 1000 ------- 0 1.0 2.0 59 59
- 0.152444 1 2 cbr 1000 ------- 0 1.0 2.0 59 59
r 0.152578 1 2 cbr 1000 ------- 0 1.0 2.0 47 47
+ 0.153333 1 2 cbr 1000 ------- 0 1.0 2.0 60 60
- 0.153333 1 2 cbr 1000 ------- 0 1.0 2.0 60 60
r 0.153467 1 2 cbr 1000 ------- 0 1.0 2.0 48 48
+ 0.154222 1 2 cbr 1000 ------- 0 1.0 2.0 61 61
- 0.154222 1 2 cbr 1000 ------- 0 1.0 2.0 61 61
r 0.154356 1 2 cbr 1000 ------- 0 1.0 2.0 49 49
+ 0.155111 1 2 cbr 1000 ------- 0 1.0 2.0 62 62
- 0.155111 1 2 cbr 1000 ------- 0 1.0 2.0 62 62
r 0.155244 1 2 cbr 1000 ------- 0 1.0 2.0 50 50
+ 0.156 1 2 cbr 1000 ------- 0 1.0 2.0 63 63
- 0.156 1 2 cbr 1000 ------- 0 1.0 2.0 63 63
r 0.156133 1 2 cbr 1000 ------- 0 1.0 2.0 51 51
+ 0.156889 1 2 cbr 1000 ------- 0 1.0 2.0 64 64
- 0.156889 1 2 cbr 1000 ------- 0 1.0 2.0 64 64
r 0.157022 1 2 cbr 1000 ------- 0 1.0 2.0 52 52
+ 0.157778 1 2 cbr 1000 ------- 0 1.0 2.0 65 65
- 0.157778 1 2 cbr 1000 ------- 0 1.0 2.0 65 65
r 0.157911 1 2 cbr 1000 ------- 0 1.0 2.0 53 53
+ 0.158667 1 2 cbr 1000 ------- 0 1.0 2.0 66 66
- 0.158667 1 2 cbr 1000 ------- 0 1.0 2.0 66 66
r 0.1588 1 2 cbr 1000 ------- 0 1.0 2.0 54 54
+ 0.159556 1 2 cbr 1000 ------- 0 1.0 2.0 67 67
- 0.159556 1 2 cbr 1000 ------- 0 1.0 2.0 67 67
r 0.159689 1 2 cbr 1000 ------- 0 1.0 2.0 55 55
+ 0.160444 1 2 cbr 1000 ------- 0 1.0 2.0 68 68
- 0.160444 1 2 cbr 1000 ------- 0 1.0 2.0 68 68
r 0.160578 1 2 cbr 1000 ------- 0 1.0 2.0 56 56
+ 0.161333 1 2 cbr 1000 ------- 0 1.0 2.0 69 69
- 0.161333 1 2 cbr 1000 ------- 0 1.0 2.0 69 69
r 0.161467 1 2 cbr 1000 ------- 0 1.0 2.0 57 57
+ 0.162222 1 2 cbr 1000 ------- 0 1.0 2.0 70 70
- 0.162222 1 2 cbr 1000 ------- 0 1.0 2.0 70 70
r 0.162356 1 2 cbr 1000 ------- 0 1.0 2.0 58 58
+ 0.163111 1 2 cbr 1000 ------- 0 1.0 2.0 71 71
- 0.163111 1 2 cbr 1000 ------- 0 1.0 2.0 71 71
r 0.163244 1 2 cbr 1000 ------- 0 1.0 2.0 59 59
+ 0.164 1 2 cbr 1000 ------- 0 1.0 2.0 72 72
- 0.164 1 2 cbr 1000 ------- 0 1.0 2.0 72 72
r 0.164133 1 2 cbr 1000 ------- 0 1.0 2.0 60 60
+ 0.164889 1 2 cbr 1000 ------- 0 1.0 2.0 73 73
- 0.164889 1 2 cbr 1000 ------- 0 1.0 2.0 73 73
r 0.165022 1 2 cbr 1000 ------- 0 1.0 2.0 61 61
+ 0.165778 1 2 cbr 1000 ------- 0 1.0 2.0 74 74
- 0.165778 1 2 cbr 1000 ------- 0 1.0 2.0 74 74
r 0.165911 1 2 cbr 1000 ------- 0 1.0 2.0 62 62
+ 0.166667 1 2 cbr 1000 ------- 0 1.0 2.0 75 75
- 0.166667 1 2 cbr 1000 ------- 0 1.0 2.0 75 75
r 0.1668 1 2 cbr 1000 ------- 0 1.0 2.0 63 63
+ 0.167556 1 2 cbr 1000 ------- 0 1.0 2.0 76 76
- 0.167556 1 2 cbr 1000 ------- 0 1.0 2.0 76 76
r 0.167689 1 2 cbr 1000 ------- 0 1.0 2.0 64 64
+ 0.168444 1 2 cbr 1000 ------- 0 1.0 2.0 77 77
- 0.168444 1 2 cbr 1000 ------- 0 1.0 2.0 77 77
r 0.168578 1 2 cbr 1000 ------- 0 1.0 2.0 65 65
+ 0.169333 1 2 cbr 1000 ------- 0 1.0 2.0 78 78
- 0.169333 1 2 cbr 1000 ------- 0 1.0 2.0 78 78
r 0.169467 1 2 cbr 1000 ------- 0 1.0 2.0 66 66
+ 0.170222 1 2 cbr 1000 ------- 0 1.0 2.0 79 79
- 0.170222 1 2 cbr 1000 ------- 0 1.0 2.0 79 79
r 0.170356 1 2 cbr 1000 ------- 0 1.0 2.0 67 67
+ 0.171111 1 2 cbr 1000 ------- 0 1.0 2.0 80 80
- 0.171111 1 2 cbr 1000 ------- 0 1.0 2.0 80 80
r 0.171244 1 2 cbr 1000 ------- 0 1.0 2.0 68 68
+ 0.172 1 2 cbr 1000 ------- 0 1.0 2.0 81 81
- 0.172 1 2 cbr 1000 ------- 0 1.0 2.0 81 81
r 0.172133 1 2 cbr 1000 ------- 0 1.0 2.0 69 69
+ 0.172889 1 2 cbr 1000 ------- 0 1.0 2.0 82 82
- 0.172889 1 2 cbr 1000 ------- 0 1.0 2.0 82 82
r 0.173022 1 2 cbr 1000 ------- 0 1.0 2.0 70 70
+ 0.173778 1 2 cbr 1000 ------- 0 1.0 2.0 83 83
- 0.173778 1 2 cbr 1000 ------- 0 1.0 2.0 83 83
r 0.173911 1 2 cbr 1000 ------- 0 1.0 2.0 71 71
+ 0.174667 1 2 cbr 1000 ------- 0 1.0 2.0 84 84
- 0.174667 1 2 cbr 1000 ------- 0 1.0 2.0 84 84
r 0.1748 1 2 cbr 1000 ------- 0 1.0 2.0 72 72
+ 0.175556 1 2 cbr 1000 ------- 0 1.0 2.0 85 85
- 0.175556 1 2 cbr 1000 ------- 0 1.0 2.0 85 85
r 0.175689 1 2 cbr 1000 ------- 0 1.0 2.0 73 73
+ 0.176444 1 2 cbr 1000 ------- 0 1.0 2.0 86 86
- 0.176444 1 2 cbr 1000 ------- 0 1.0 2.0 86 86
r 0.176578 1 2 cbr 1000 ------- 0 1.0 2.0 74 74
+ 0.177333 1 2 cbr 1000 ------- 0 1.0 2.0 87 87
- 0.177333 1 2 cbr 1000 ------- 0 1.0 2.0 87 87
r 0.177467 1 2 cbr 1000 ------- 0 1.0 2.0 75 75
+ 0.178222 1 2 cbr 1000 ------- 0 1.0 2.0 88 88
- 0.178222 1 2 cbr 1000 ------- 0 1.0 2.0 88 88
r 0.178356 1 2 cbr 1000 ------- 0 1.0 2.0 76 76
+ 0.179111 1 2 cbr 1000 ------- 0 1.0 2.0 89 89
- 0.179111 1 2 cbr 1000 ------- 0 1.0 2.0 89 89
r 0.179244 1 2 cbr 1000 ------- 0 1.0 2.0 77 77
+ 0.18 1 2 cbr 1000 ------- 0 1.0 2.0 90 90
- 0.18 1 2 cbr 1000 ------- 0 1.0 2.0 90 90
r 0.180133 1 2 cbr 1000 ------- 0 1.0 2.0 78 78
+ 0.180889 1 2 cbr 1000 ------- 0 1.0 2.0 91 91
- 0.180889 1 2 cbr 1000 ------- 0 1.0 2.0 91 91
r 0.181022 1 2 cbr 1000 ------- 0 1.0 2.0 79 79
+ 0.181778 1 2 cbr 1000 ------- 0 1.0 2.0 92 92
- 0.181778 1 2 cbr 1000 ------- 0 1.0 2.0 92 92
r 0.181911 1 2 cbr 1000 ------- 0 1.0 2.0 80 80
+ 0.182667 1 2 cbr 1000 ------- 0 1.0 2.0 93 93
- 0.182667 1 2 cbr 1000 ------- 0 1.0 2.0 93 93
r 0.1828 1 2 cbr 1000 ------- 0 1.0 2.0 81 81
+ 0.183556 1 2 cbr 1000 ------- 0 1.0 2.0 94 94
- 0.183556 1 2 cbr 1000 ------- 0 1.0 2.0 94 94
r 0.183689 1 2 cbr 1000 ------- 0 1.0 2.0 82 82
+ 0.184444 1 2 cbr 1000 ------- 0 1.0 2.0 95 95
- 0.184444 1 2 cbr 1000 ------- 0 1.0 2.0 95 95
r 0.184578 1 2 cbr 1000 ------- 0 1.0 2.0 83 83
+ 0.185333 1 2 cbr 1000 ------- 0 1.0 2.0 96 96
- 0.185333 1 2 cbr 1000 ------- 0 1.0 2.0 96 96
r 0.185467 1 2 cbr 1000 ------- 0 1.0 2.0 84 84
+ 0.186222 1 2 cbr 1000 ------- 0 1.0 2.0 97 97
- 0.186222 1 2 cbr 1000 ------- 0 1.0 2.0 97 97
r 0.186356 1 2 cbr 1000 ------- 0 1.0 2.0 85 85
+ 0.187111 1 2 cbr 1000 ------- 0 1.0 2.0 98 98
- 0.187111 1 2 cbr 1000 ------- 0 1.0 2.0 98 98
r 0.187244 1 2 cbr 1000 ------- 0 1.0 2.0 86 86
+ 0.188 1 2 cbr 1000 ------- 0 1.0 2.0 99 99
- 0.188 1 2 cbr 1000 ------- 0 1.0 2.0 99 99
r 0.188133 1 2 cbr 1000 ------- 0 1.0 2.0 87 87
+ 0.188889 1 2 cbr 1000 ------- 0 1.0 2.0 100 100
- 0.188889 1 2 cbr 1000 ------- 0 1.0 2.0 100 100
r 0.189022 1 2 cbr 1000 ------- 0 1.0 2.0 88 88
+ 0.189778 1 2 cbr 1000 ------- 0 1.0 2.0 101 101
- 0.189778 1 2 cbr 1000 ------- 0 1.0 2.0 101 101
r 0.189911 1 2 cbr 1000 ------- 0 1.0 2.0 89 89
+ 0.190667 1 2 cbr 1000 ------- 0 1.0 2.0 102 102
- 0.190667 1 2 cbr 1000 ------- 0 1.0 2.0 102 102
r 0.1908 1 2 cbr 1000 ------- 0 1.0 2.0 90 90
+ 0.191556 1 2 cbr 1000 ------- 0 1.0 2.0 103 103
- 0.191556 1 2 cbr 1000 ------- 0 1.0 2.0 103 103
r 0.191689 1 2 cbr 1000 ------- 0 1.0 2.0 91 91
+ 0.192444 1 2 cbr 1000 ------- 0 1.0 2.0 104 104
- 0.192444 1 2 cbr 1000 ------- 0 1.0 2.0 104 104
r 0.192578 1 2 cbr 1000 ------- 0 1.0 2.0 92 92
+ 0.193333 1 2 cbr 1000 ------- 0 1.0 2.0 105 105
- 0.193333 1 2 cbr 1000 ------- 0 1.0 2.0 105 105
r 0.193467 1 2 cbr 1000 ------- 0 1.0 2.0 93 93
+ 0.194222 1 2 cbr 1000 ------- 0 1.0 2.0 106 106
- 0.194222 1 2 cbr 1000 ------- 0 1.0 2.0 106 106
r 0.194356 1 2 cbr 1000 ------- 0 1.0 2.0 94 94
+ 0.195111 1 2 cbr 1000 ------- 0 1.0 2.0 107 107
- 0.195111 1 2 cbr 1000 ------- 0 1.0 2.0 107 107
r 0.195244 1 2 cbr 1000 ------- 0 1.0 2.0 95 95
+ 0.196 1 2 cbr 1000 ------- 0 1.0 2.0 108 108
- 0.196 1 2 cbr 1000 ------- 0 1.0 2.0 108 108
r 0.196133 1 2 cbr 1000 ------- 0 1.0 2.0 96 96
+ 0.196889 1 2 cbr 1000 ------- 0 1.0 2.0 109 109
- 0.196889 1 2 cbr 1000 ------- 0 1.0 2.0 109 109
r 0.197022 1 2 cbr 1000 ------- 0 1.0 2.0 97 97
+ 0.197778 1 2 cbr 1000 ------- 0 1.0 2.0 110 110
- 0.197778 1 2 cbr 1000 ------- 0 1.0 2.0 110 110
r 0.197911 1 2 cbr 1000 ------- 0 1.0 2.0 98 98
+ 0.198667 1 2 cbr 1000 ------- 0 1.0 2.0 111 111
- 0.198667 1 2 cbr 1000 ------- 0 1.0 2.0 111 111
r 0.1988 1 2 cbr 1000 ------- 0 1.0 2.0 99 99
+ 0.199556 1 2 cbr 1000 ------- 0 1.0 2.0 112 112
- 0.199556 1 2 cbr 1000 ------- 0 1.0 2.0 112 112
r 0.199689 1 2 cbr 1000 ------- 0 1.0 2.0 100 100
+ 0.2 0 1 tcp 40 ------- 1 0.0 3.0 0 113
- 0.2 0 1 tcp 40 ------- 1 0.0 3.0 0 113
+ 0.200444 1 2 cbr 1000 ------- 0 1.0 2.0 113 114
- 0.200444 1 2 cbr 1000 ------- 0 1.0 2.0 113 114
r 0.200578 1 2 cbr 1000 ------- 0 1.0 2.0 101 101
+ 0.201333 1 2 cbr 1000 ------- 0 1.0 2.0 114 115
- 0.201333 1 2 cbr 1000 ------- 0 1.0 2.0 114 115
r 0.201467 1 2 cbr 1000 ------- 0 1.0 2.0 102 102
+ 0.202222 1 2 cbr 1000 ------- 0 1.0 2.0 115 116
- 0.202222 1 2 cbr 1000 ------- 0 1.0 2.0 115 116
r 0.202356 1 2 cbr 1000 ------- 0 1.0 2.0 103 103
+ 0.203111 1 2 cbr 1000 ------- 0 1.0 2.0 116 117
- 0.203111 1 2 cbr 1000 ------- 0 1.0 2.0 116 117
r 0.203244 1 2 cbr 1000 ------- 0 1.0 2.0 104 104
+ 0.204 1 2 cbr 1000 ------- 0 1.0 2.0 117 118
- 0.204 1 2 cbr 1000 ------- 0 1.0 2.0 117 118
r 0.204133 1 2 cbr 1000 ------- 0 1.0 2.0 105 105
+ 0.204889 1 2 cbr 1000 ------- 0 1.0 2.0 118 119
- 0.204889 1 2 cbr 1000 ------- 0 1.0 2.0 118 119
r 0.205022 1 2 cbr 1000 ------- 0 1.0 2.0 106 106
+ 0.205778 1 2 cbr 1000 ------- 0 1.0 2.0 119 120
- 0.205778 1 2 cbr 1000 ------- 0 1.0 2.0 119 120
r 0.205911 1 2 cbr 1000 ------- 0 1.0 2.0 107 107
+ 0.206667 1 2 cbr 1000 ------- 0 1.0 2.0 120 121
- 0.206667 1 2 cbr 1000 ------- 0 1.0 2.0 120 121
r 0.2068 1 2 cbr 1000 ------- 0 1.0 2.0 108 108
+ 0.207556 1 2 cbr 1000 ------- 0 1.0 2.0 121 122
- 0.207556 1 2 cbr 1000 ------- 0 1.0 2.0 121 122
r 0.207689 1 2 cbr 1000 ------- 0 1.0 2.0 109 109
+ 0.208444 1 2 cbr 1000 ------- 0 1.0 2.0 122 123
- 0.208444 1 2 cbr 1000 ------- 0 1.0 2.0 122 123
r 0.208578 1 2 cbr 1000 ------- 0 1.0 2.0 110 110
+ 0.209333 1 2 cbr 1000 ------- 0 1.0 2.0 123 124
- 0.209333 1 2 cbr 1000 ------- 0 1.0 2.0 123 124
r 0.209467 1 2 cbr 1000 ------- 0 1.0 2.0 111 111
r 0.210032 0 1 tcp 40 ------- 1 0.0 3.0 0 113
+ 0.210032 1 2 tcp 40 ------- 1 0.0 3.0 0 113
- 0.210133 1 2 tcp 40 ------- 1 0.0 3.0 0 113
+ 0.210222 1 2 cbr 1000 ------- 0 1.0 2.0 124 125
- 0.210222 1 2 cbr 1000 ------- 0 1.0 2.0 124 125
r 0.210356 1 2 cbr 1000 ------- 0 1.0 2.0 112 112
+ 0.211111 1 2 cbr 1000 ------- 0 1.0 2.0 125 126
- 0.211111 1 2 cbr 1000 ------- 0 1.0 2.0 125 126
r 0.211244 1 2 cbr 1000 ------- 0 1.0 2.0 113 114
+ 0.212 1 2 cbr 1000 ------- 0 1.0 2.0 126 127
- 0.212 1 2 cbr 1000 ------- 0 1.0 2.0 126 127
r 0.212133 1 2 cbr 1000 ------- 0 1.0 2.0 114 115
+ 0.212889 1 2 cbr 1000 ------- 0 1.0 2.0 127 128
- 0.212889 1 2 cbr 1000 ------- 0 1.0 2.0 127 128
r 0.213022 1 2 cbr 1000 ------- 0 1.0 2.0 115 116
+ 0.213778 1 2 cbr 1000 ------- 0 1.0 2.0 128 129
- 0.213778 1 2 cbr 1000 ------- 0 1.0 2.0 128 129
r 0.213911 1 2 cbr 1000 ------- 0 1.0 2.0 116 117
+ 0.214667 1 2 cbr 1000 ------- 0 1.0 2.0 129 130
- 0.214667 1 2 cbr 1000 ------- 0 1.0 2.0 129 130
r 0.2148 1 2 cbr 1000 ------- 0 1.0 2.0 117 118
+ 0.215556 1 2 cbr 1000 ------- 0 1.0 2.0 130 131
- 0.215556 1 2 cbr 1000 ------- 0 1.0 2.0 130 131
r 0.215689 1 2 cbr 1000 ------- 0 1.0 2.0 118 119
+ 0.216444 1 2 cbr 1000 ------- 0 1.0 2.0 131 132
- 0.216444 1 2 cbr 1000 ------- 0 1.0 2.0 131 132
r 0.216578 1 2 cbr 1000 ------- 0 1.0 2.0 119 120
+ 0.217333 1 2 cbr 1000 ------- 0 1.0 2.0 132 133
- 0.217333 1 2 cbr 1000 ------- 0 1.0 2.0 132 133
r 0.217467 1 2 cbr 1000 ------- 0 1.0 2.0 120 121
+ 0.218222 1 2 cbr 1000 ------- 0 1.0 2.0 133 134
- 0.218222 1 2 cbr 1000 ------- 0 1.0 2.0 133 134
r 0.218356 1 2 cbr 1000 ------- 0 1.0 2.0 121 122
+ 0.219111 1 2 cbr 1000 ------- 0 1.0 2.0 134 135
- 0.219111 1 2 cbr 1000 ------- 0 1.0 2.0 134 135
r 0.219244 1 2 cbr 1000 ------- 0 1.0 2.0 122 123
+ 0.22 1 2 cbr 1000 ------- 0 1.0 2.0 135 136
- 0.22 1 2 cbr 1000 ------- 0 1.0 2.0 135 136
r 0.220133 1 2 cbr 1000 ------- 0 1.0 2.0 123 124
r 0.220165 1 2 tcp 40 ------- 1 0.0 3.0 0 113
+ 0.220165 2 3 tcp 40 ------- 1 0.0 3.0 0 113
- 0.220165 2 3 tcp 40 ------- 1 0.0 3.0 0 113
+ 0.220889 1 2 cbr 1000 ------- 0 1.0 2.0 136 137
- 0.220889 1 2 cbr 1000 ------- 0 1.0 2.0 136 137
r 0.221022 1 2 cbr 1000 ------- 0 1.0 2.0 124 125
+ 0.221778 1 2 cbr 1000 ------- 0 1.0 2.0 137 138
- 0.221778 1 2 cbr 1000 ------- 0 1.0 2.0 137 138
r 0.221911 1 2 cbr 1000 ------- 0 1.0 2.0 125 126
+ 0.222667 1 2 cbr 1000 ------- 0 1.0 2.0 138 139
- 0.222667 1 2 cbr 1000 ------- 0 1.0 2.0 138 139
r 0.2228 1 2 cbr 1000 ------- 0 1.0 2.0 126 127
+ 0.223556 1 2 cbr 1000 ------- 0 1.0 2.0 139 140
- 0.223556 1 2 cbr 1000 ------- 0 1.0 2.0 139 140
r 0.223689 1 2 cbr 1000 ------- 0 1.0 2.0 127 128
+ 0.224444 1 2 cbr 1000 ------- 0 1.0 2.0 140 141
- 0.224444 1 2 cbr 1000 ------- 0 1.0 2.0 140 141
r 0.224578 1 2 cbr 1000 ------- 0 1.0 2.0 128 129
+ 0.225333 1 2 cbr 1000 ------- 0 1.0 2.0 141 142
- 0.225333 1 2 cbr 1000 ------- 0 1.0 2.0 141 142
r 0.225467 1 2 cbr 1000 ------- 0 1.0 2.0 129 130
+ 0.226222 1 2 cbr 1000 ------- 0 1.0 2.0 142 143
- 0.226222 1 2 cbr 1000 ------- 0 1.0 2.0 142 143
r 0.226356 1 2 cbr 1000 ------- 0 1.0 2.0 130 131
+ 0.227111 1 2 cbr 1000 ------- 0 1.0 2.0 143 144
- 0.227111 1 2 cbr 1000 ------- 0 1.0 2.0 143 144
r 0.227244 1 2 cbr 1000 ------- 0 1.0 2.0 131 132
+ 0.228 1 2 cbr 1000 ------- 0 1.0 2.0 144 145
- 0.228 1 2 cbr 1000 ------- 0 1.0 2.0 144 145
r 0.228133 1 2 cbr 1000 ------- 0 1.0 2.0 132 133
+ 0.228889 1 2 cbr 1000 ------- 0 1.0 2.0 145 146
- 0.228889 1 2 cbr 1000 ------- 0 1.0 2.0 145 146
r 0.229022 1 2 cbr 1000 ------- 0 1.0 2.0 133 134
+ 0.229778 1 2 cbr 1000 ------- 0 1.0 2.0 146 147
- 0.229778 1 2 cbr 1000 ------- 0 1.0 2.0 146 147
r 0.229911 1 2 cbr 1000 ------- 0 1.0 2.0 134 135
r 0.230197 2 3 tcp 40 ------- 1 0.0 3.0 0 113
+ 0.230197 3 2 ack 40 ------- 1 3.0 0.0 0 148
- 0.230197 3 2 ack 40 ------- 1 3.0 0.0 0 148
+ 0.230667 1 2 cbr 1000 ------- 0 1.0 2.0 147 149
- 0.230667 1 2 cbr 1000 ------- 0 1.0 2.0 147 149
r 0.2308 1 2 cbr 1000 ------- 0 1.0 2.0 135 136
+ 0.231556 1 2 cbr 1000 ------- 0 1.0 2.0 148 150
- 0.231556 1 2 cbr 1000 ------- 0 1.0 2.0 148 150
r 0.231689 1 2 cbr 1000 ------- 0 1.0 2.0 136 137
+ 0.232444 1 2 cbr 1000 ------- 0 1.0 2.0 149 151
- 0.232444 1 2 cbr 1000 ------- 0 1.0 2.0 149 151
r 0.232578 1 2 cbr 1000 ------- 0 1.0 2.0 137 138
+ 0.233333 1 2 cbr 1000 ------- 0 1.0 2.0 150 152
- 0.233333 1 2 cbr 1000 ------- 0 1.0 2.0 150 152
r 0.233467 1 2 cbr 1000 ------- 0 1.0 2.0 138 139
+ 0.234222 1 2 cbr 1000 ------- 0 1.0 2.0 151 153
- 0.234222 1 2 cbr 1000 ------- 0 1.0 2.0 151 153
r 0.234356 1 2 cbr 1000 ------- 0 1.0 2.0 139 140
+ 0.235111 1 2 cbr 1000 ------- 0 1.0 2.0 152 154
- 0.235111 1 2 cbr 1000 ------- 0 1.0 2.0 152 154
r 0.235244 1 2 cbr 1000 ------- 0 1.0 2.0 140 141
+ 0.236 1 2 cbr 1000 ------- 0 1.0 2.0 153 155
- 0.236 1 2 cbr 1000 ------- 0 1.0 2.0 153 155
r 0.236133 1 2 cbr 1000 ------- 0 1.0 2.0 141 142
+ 0.236889 1 2 cbr 1000 ------- 0 1.0 2.0 154 156
- 0.236889 1 2 cbr 1000 ------- 0 1.0 2.0 154 156
r 0.237022 1 2 cbr 1000 ------- 0 1.0 2.0 142 143
+ 0.237778 1 2 cbr 1000 ------- 0 1.0 2.0 155 157
- 0.237778 1 2 cbr 1000 ------- 0 1.0 2.0 155 157
r 0.237911 1 2 cbr 1000 ------- 0 1.0 2.0 143 144
+ 0.238667 1 2 cbr 1000 ------- 0 1.0 2.0 156 158
- 0.238667 1 2 cbr 1000 ------- 0 1.0 2.0 156 158
r 0.2388 1 2 cbr 1000 ------- 0 1.0 2.0 144 145
+ 0.239556 1 2 cbr 1000 ------- 0 1.0 2.0 157 159
- 0.239556 1 2 cbr 1000 ------- 0 1.0 2.0 157 159
r 0.239689 1 2 cbr 1000 ------- 0 1.0 2.0 145 146
r 0.240229 3 2 ack 40 ------- 1 3.0 0.0 0 148
+ 0.240229 2 1 ack 40 ------- 1 3.0 0.0 0 148
- 0.240229 2 1 ack 40 ------- 1 3.0 0.0 0 148
+ 0.240444 1 2 cbr 1000 ------- 0 1.0 2.0 158 160
- 0.240444 1 2 cbr 1000 ------- 0 1.0 2.0 158 160
r 0.240578 1 2 cbr 1000 ------- 0 1.0 2.0 146 147
+ 0.241333 1 2 cbr 1000 ------- 0 1.0 2.0 159 161
- 0.241333 1 2 cbr 1000 ------- 0 1.0 2.0 159 161
r 0.241467 1 2 cbr 1000 ------- 0 1.0 2.0 147 149
+ 0.242222 1 2 cbr 1000 ------- 0 1.0 2.0 160 162
- 0.242222 1 2 cbr 1000 ------- 0 1.0 2.0 160 162
r 0.242356 1 2 cbr 1000 ------- 0 1.0 2.0 148 150
+ 0.243111 1 2 cbr 1000 ------- 0 1.0 2.0 161 163
- 0.243111 1 2 cbr 1000 ------- 0 1.0 2.0 161 163
r 0.243244 1 2 cbr 1000 ------- 0 1.0 2.0 149 151
+ 0.244 1 2 cbr 1000 ------- 0 1.0 2.0 162 164
- 0.244 1 2 cbr 1000 ------- 0 1.0 2.0 162 164
r 0.244133 1 2 cbr 1000 ------- 0 1.0 2.0 150 152
+ 0.244889 1 2 cbr 1000 ------- 0 1.0 2.0 163 165
- 0.244889 1 2 cbr 1000 ------- 0 1.0 2.0 163 165
r 0.245022 1 2 cbr 1000 ------- 0 1.0 2.0 151 153
+ 0.245778 1 2 cbr 1000 ------- 0 1.0 2.0 164 166
- 0.245778 1 2 cbr 1000 ------- 0 1.0 2.0 164 166
r 0.245911 1 2 cbr 1000 ------- 0 1.0 2.0 152 154
+ 0.246667 1 2 cbr 1000 ------- 0 1.0 2.0 165 167
- 0.246667 1 2 cbr 1000 ------- 0 1.0 2.0 165 167
r 0.2468 1 2 cbr 1000 ------- 0 1.0 2.0 153 155
+ 0.247556 1 2 cbr 1000 ------- 0 1.0 2.0 166 168
- 0.247556 1 2 cbr 1000 ------- 0 1.0 2.0 166 168
r 0.247689 1 2 cbr 1000 ------- 0 1.0 2.0 154 156
+ 0.248444 1 2 cbr 1000 ------- 0 1.0 2.0 167 169
- 0.248444 1 2 cbr 1000 ------- 0 1.0 2.0 167 169
r 0.248578 1 2 cbr 1000 ------- 0 1.0 2.0 155 157
+ 0.249333 1 2 cbr 1000 ------- 0 1.0 2.0 168 170
- 0.249333 1 2 cbr 1000 ------- 0 1.0 2.0 168 170
r 0.249467 1 2 cbr 1000 ------- 0 1.0 2.0 156 158
+ 0.250222 1 2 cbr 1000 ------- 0 1.0 2.0 169 171
- 0.250222 1 2 cbr 1000 ------- 0 1.0 2.0 169 171
r 0.250261 2 1 ack 40 ------- 1 3.0 0.0 0 148
+ 0.250261 1 0 ack 40 ------- 1 3.0 0.0 0 148
- 0.250261 1 0 ack 40 ------- 1 3.0 0.0 0 148
r 0.250356 1 2 cbr 1000 ------- 0 1.0 2.0 157 159
+ 0.251111 1 2 cbr 1000 ------- 0 1.0 2.0 170 172
- 0.251111 1 2 cbr 1000 ------- 0 1.0 2.0 170 172
r 0.251244 1 2 cbr 1000 ------- 0 1.0 2.0 158 160
+ 0.252 1 2 cbr 1000 ------- 0 1.0 2.0 171 173
- 0.252 1 2 cbr 1000 ------- 0 1.0 2.0 171 173
r 0.252133 1 2 cbr 1000 ------- 0 1.0 2.0 159 161
+ 0.252889 1 2 cbr 1000 ------- 0 1.0 2.0 172 174
- 0.252889 1 2 cbr 1000 ------- 0 1.0 2.0 172 174
r 0.253022 1 2 cbr 1000 ------- 0 1.0 2.0 160 162
+ 0.253778 1 2 cbr 1000 ------- 0 1.0 2.0 173 175
- 0.253778 1 2 cbr 1000 ------- 0 1.0 2.0 173 175
r 0.253911 1 2 cbr 1000 ------- 0 1.0 2.0 161 163
+ 0.254667 1 2 cbr 1000 ------- 0 1.0 2.0 174 176
- 0.254667 1 2 cbr 1000 ------- 0 1.0 2.0 174 176
r 0.2548 1 2 cbr 1000 ------- 0 1.0 2.0 162 164
+ 0.255556 1 2 cbr 1000 ------- 0 1.0 2.0 175 177
- 0.255556 1 2 cbr 1000 ------- 0 1.0 2.0 175 177
r 0.255689 1 2 cbr 1000 ------- 0 1.0 2.0 163 165
+ 0.256444 1 2 cbr 1000 ------- 0 1.0 2.0 176 178
- 0.256444 1 2 cbr 1000 ------- 0 1.0 2.0 176 178
r 0.256578 1 2 cbr 1000 ------- 0 1.0 2.0 164 166
+ 0.257333 1 2 cbr 1000 ------- 0 1.0 2.0 177 179
- 0.257333 1 2 cbr 1000 ------- 0 1.0 2.0 177 179
r 0.257467 1 2 cbr 1000 ------- 0 1.0 2.0 165 167
+ 0.258222 1 2 cbr 1000 ------- 0 1.0 2.0 178 180
- 0.258222 1 2 cbr 1000 ------- 0 1.0 2.0 178 180
r 0.258356 1 2 cbr 1000 ------- 0 1.0 2.0 166 168
+ 0.259111 1 2 cbr 1000 ------- 0 1.0 2.0 179 181
- 0.259111 1 2 cbr 1000 ------- 0 1.0 2.0 179 181
r 0.259244 1 2 cbr 1000 ------- 0 1.0 2.0 167 169
+ 0.26 1 2 cbr 1000 ------- 0 1.0 2.0 180 182
- 0.26 1 2 cbr 1000 ------- 0 1.0 2.0 180 182
r 0.260133 1 2 cbr 1000 ------- 0 1.0 2.0 168 170
r 0.260293 1 0 ack 40 ------- 1 3.0 0.0 0 148
+ 0.260293 0 1 tcp 1040 ------- 1 0.0 3.0 1 183
- 0.260293 0 1 tcp 1040 ------- 1 0.0 3.0 1 183
+ 0.260293 0 1 tcp 1040 ------- 1 0.0 3.0 2 184
+ 0.260889 1 2 cbr 1000 ------- 0 1.0 2.0 181 185
- 0.260889 1 2 cbr 1000 ------- 0 1.0 2.0 181 185
r 0.261022 1 2 cbr 1000 ------- 0 1.0 2.0 169 171
- 0.261125 0 1 tcp 1040 ------- 1 0.0 3.0 2 184
+ 0.261778 1 2 cbr 1000 ------- 0 1.0 2.0 182 186
- 0.261778 1 2 cbr 1000 ------- 0 1.0 2.0 182 186
r 0.261911 1 2 cbr 1000 ------- 0 1.0 2.0 170 172
+ 0.262667 1 2 cbr 1000 ------- 0 1.0 2.0 183 187
- 0.262667 1 2 cbr 1000 ------- 0 1.0 2.0 183 187
r 0.2628 1 2 cbr 1000 ------- 0 1.0 2.0 171 173
+ 0.263556 1 2 cbr 1000 ------- 0 1.0 2.0 184 188
- 0.263556 1 2 cbr 1000 ------- 0 1.0 2.0 184 188
r 0.263689 1 2 cbr 1000 ------- 0 1.0 2.0 172 174
+ 0.264444 1 2 cbr 1000 ------- 0 1.0 2.0 185 189
- 0.264444 1 2 cbr 1000 ------- 0 1.0 2.0 185 189
r 0.264578 1 2 cbr 1000 ------- 0 1.0 2.0 173 175
+ 0.265333 1 2 cbr 1000 ------- 0 1.0 2.0 186 190
- 0.265333 1 2 cbr 1000 ------- 0 1.0 2.0 186 190
r 0.265467 1 2 cbr 1000 ------- 0 1.0 2.0 174 176
+ 0.266222 1 2 cbr 1000 ------- 0 1.0 2.0 187 191
- 0.266222 1 2 cbr 1000 ------- 0 1.0 2.0 187 191
r 0.266356 1 2 cbr 1000 ------- 0 1.0 2.0 175 177
+ 0.267111 1 2 cbr 1000 ------- 0 1.0 2.0 188 192
- 0.267111 1 2 cbr 1000 ------- 0 1.0 2.0 188 192
r 0.267244 1 2 cbr 1000 ------- 0 1.0 2.0 176 178
+ 0.268 1 2 cbr 1000 ------- 0 1.0 2.0 189 193
- 0.268 1 2 cbr 1000 ------- 0 1.0 2.0 189 193
r 0.268133 1 2 cbr 1000 ------- 0 1.0 2.0 177 179
+ 0.268889 1 2 cbr 1000 ------- 0 1.0 2.0 190 194
- 0.268889 1 2 cbr 1000 ------- 0 1.0 2.0 190 194
r 0.269022 1 2 cbr 1000 ------- 0 1.0 2.0 178 180
+ 0.269778 1 2 cbr 1000 ------- 0 1.0 2.0 191 195
- 0.269778 1 2 cbr 1000 ------- 0 1.0 2.0 191 195
r 0.269911 1 2 cbr 1000 ------- 0 1.0 2.0 179 181
+ 0.270667 1 2 cbr 1000 ------- 0 1.0 2.0 192 196
- 0.270667 1 2 cbr 1000 ------- 0 1.0 2.0 192 196
r 0.2708 1 2 cbr 1000 ------- 0 1.0 2.0 180 182
r 0.271125 0 1 tcp 1040 ------- 1 0.0 3.0 1 183
+ 0.271125 1 2 tcp 1040 ------- 1 0.0 3.0 1 183
- 0.271467 1 2 tcp 1040 ------- 1 0.0 3.0 1 183
+ 0.271556 1 2 cbr 1000 ------- 0 1.0 2.0 193 197
r 0.271689 1 2 cbr 1000 ------- 0 1.0 2.0 181 185
r 0.271957 0 1 tcp 1040 ------- 1 0.0 3.0 2 184
+ 0.271957 1 2 tcp 1040 ------- 1 0.0 3.0 2 184
- 0.272299 1 2 cbr 1000 ------- 0 1.0 2.0 193 197
+ 0.272444 1 2 cbr 1000 ------- 0 1.0 2.0 194 198
r 0.272578 1 2 cbr 1000 ------- 0 1.0 2.0 182 186
- 0.273099 1 2 tcp 1040 ------- 1 0.0 3.0 2 184
+ 0.273333 1 2 cbr 1000 ------- 0 1.0 2.0 195 199
r 0.273467 1 2 cbr 1000 ------- 0 1.0 2.0 183 187
- 0.273931 1 2 cbr 1000 ------- 0 1.0 2.0 194 198
+ 0.274222 1 2 cbr 1000 ------- 0 1.0 2.0 196 200
r 0.274356 1 2 cbr 1000 ------- 0 1.0 2.0 184 188
- 0.274731 1 2 cbr 1000 ------- 0 1.0 2.0 195 199
+ 0.275111 1 2 cbr 1000 ------- 0 1.0 2.0 197 201
r 0.275244 1 2 cbr 1000 ------- 0 1.0 2.0 185 189
- 0.275531 1 2 cbr 1000 ------- 0 1.0 2.0 196 200
+ 0.276 1 2 cbr 1000 ------- 0 1.0 2.0 198 202
r 0.276133 1 2 cbr 1000 ------- 0 1.0 2.0 186 190
- 0.276331 1 2 cbr 1000 ------- 0 1.0 2.0 197 201
+ 0.276889 1 2 cbr 1000 ------- 0 1.0 2.0 199 203
r 0.277022 1 2 cbr 1000 ------- 0 1.0 2.0 187 191
- 0.277131 1 2 cbr 1000 ------- 0 1.0 2.0 198 202
+ 0.277778 1 2 cbr 1000 ------- 0 1.0 2.0 200 204
r 0.277911 1 2 cbr 1000 ------- 0 1.0 2.0 188 192
- 0.277931 1 2 cbr 1000 ------- 0 1.0 2.0 199 203
+ 0.278667 1 2 cbr 1000 ------- 0 1.0 2.0 201 205