+ 0.1 1 2 cbr 1000 ------- 2 1.0 2.0 0 0
- 0.1 1 2 cbr 1000 ------- 2 1.0 2.0 0 0
+ 0.102667 1 2 cbr 1000 ------- 2 1.0 2.0 1 1
- 0.102667 1 2 cbr 1000 ------- 2 1.0 2.0 1 1
+ 0.105333 1 2 cbr 1000 ------- 2 1.0 2.0 2 2
- 0.105333 1 2 cbr 1000 ------- 2 1.0 2.0 2 2
+ 0.108 1 2 cbr 1000 ------- 2 1.0 2.0 3 3
- 0.108 1 2 cbr 1000 ------- 2 1.0 2.0 3 3
+ 0.110667 1 2 cbr 1000 ------- 2 1.0 2.0 4 4
- 0.110667 1 2 cbr 1000 ------- 2 1.0 2.0 4 4
r 0.1108 1 2 cbr 1000 ------- 2 1.0 2.0 0 0
+ 0.113333 1 2 cbr 1000 ------- 2 1.0 2.0 5 5
- 0.113333 1 2 cbr 1000 ------- 2 1.0 2.0 5 5
r 0.113467 1 2 cbr 1000 ------- 2 1.0 2.0 1 1
+ 0.116 1 2 cbr 1000 ------- 2 1.0 2.0 6 6
- 0.116 1 2 cbr 1000 ------- 2 1.0 2.0 6 6
r 0.116133 1 2 cbr 1000 ------- 2 1.0 2.0 2 2
+ 0.118667 1 2 cbr 1000 ------- 2 1.0 2.0 7 7
- 0.118667 1 2 cbr 1000 ------- 2 1.0 2.0 7 7
r 0.1188 1 2 cbr 1000 ------- 2 1.0 2.0 3 3
+ 0.121333 1 2 cbr 1000 ------- 2 1.0 2.0 8 8
- 0.121333 1 2 cbr 1000 ------- 2 1.0 2.0 8 8
r 0.121467 1 2 cbr 1000 ------- 2 1.0 2.0 4 4
+ 0.124 1 2 cbr 1000 ------- 2 1.0 2.0 9 9
- 0.124 1 2 cbr 1000 ------- 2 1.0 2.0 9 9
r 0.124133 1 2 cbr 1000 ------- 2 1.0 2.0 5 5
+ 0.126667 1 2 cbr 1000 ------- 2 1.0 2.0 10 10
- 0.126667 1 2 cbr 1000 ------- 2 1.0 2.0 10 10
r 0.1268 1 2 cbr 1000 ------- 2 1.0 2.0 6 6
+ 0.129333 1 2 cbr 1000 ------- 2 1.0 2.0 11 11
- 0.129333 1 2 cbr 1000 ------- 2 1.0 2.0 11 11
r 0.129467 1 2 cbr 1000 ------- 2 1.0 2.0 7 7
+ 0.132 1 2 cbr 1000 ------- 2 1.0 2.0 12 12
- 0.132 1 2 cbr 1000 ------- 2 1.0 2.0 12 12
r 0.132133 1 2 cbr 1000 ------- 2 1.0 2.0 8 8
+ 0.134667 1 2 cbr 1000 ------- 2 1.0 2.0 13 13
- 0.134667 1 2 cbr 1000 ------- 2 1.0 2.0 13 13
r 0.1348 1 2 cbr 1000 ------- 2 1.0 2.0 9 9
+ 0.137333 1 2 cbr 1000 ------- 2 1.0 2.0 14 14
- 0.137333 1 2 cbr 1000 ------- 2 1.0 2.0 14 14
r 0.137467 1 2 cbr 1000 ------- 2 1.0 2.0 10 10
+ 0.14 1 2 cbr 1000 ------- 2 1.0 2.0 15 15
- 0.14 1 2 cbr 1000 ------- 2 1.0 2.0 15 15
r 0.140133 1 2 cbr 1000 ------- 2 1.0 2.0 11 11
+ 0.142667 1 2 cbr 1000 ------- 2 1.0 2.0 16 16
- 0.142667 1 2 cbr 1000 ------- 2 1.0 2.0 16 16
r 0.1428 1 2 cbr 1000 ------- 2 1.0 2.0 12 12
+ 0.145333 1 2 cbr 1000 ------- 2 1.0 2.0 17 17
- 0.145333 1 2 cbr 1000 ------- 2 1.0 2.0 17 17
r 0.145467 1 2 cbr 1000 ------- 2 1.0 2.0 13 13
+ 0.148 1 2 cbr 1000 ------- 2 1.0 2.0 18 18
- 0.148 1 2 cbr 1000 ------- 2 1.0 2.0 18 18
r 0.148133 1 2 cbr 1000 ------- 2 1.0 2.0 14 14
+ 0.150667 1 2 cbr 1000 ------- 2 1.0 2.0 19 19
- 0.150667 1 2 cbr 1000 ------- 2 1.0 2.0 19 19
r 0.1508 1 2 cbr 1000 ------- 2 1.0 2.0 15 15
+ 0.153333 1 2 cbr 1000 ------- 2 1.0 2.0 20 20
- 0.153333 1 2 cbr 1000 ------- 2 1.0 2.0 20 20
r 0.153467 1 2 cbr 1000 ------- 2 1.0 2.0 16 16
+ 0.156 1 2 cbr 1000 ------- 2 1.0 2.0 21 21
- 0.156 1 2 cbr 1000 ------- 2 1.0 2.0 21 21
r 0.156133 1 2 cbr 1000 ------- 2 1.0 2.0 17 17
+ 0.158667 1 2 cbr 1000 ------- 2 1.0 2.0 22 22
- 0.158667 1 2 cbr 1000 ------- 2 1.0 2.0 22 22
r 0.1588 1 2 cbr 1000 ------- 2 1.0 2.0 18 18
+ 0.161333 1 2 cbr 1000 ------- 2 1.0 2.0 23 23
- 0.161333 1 2 cbr 1000 ------- 2 1.0 2.0 23 23
r 0.161467 1 2 cbr 1000 ------- 2 1.0 2.0 19 19
+ 0.164 1 2 cbr 1000 ------- 2 1.0 2.0 24 24
- 0.164 1 2 cbr 1000 ------- 2 1.0 2.0 24 24
r 0.164133 1 2 cbr 1000 ------- 2 1.0 2.0 20 20
+ 0.166667 1 2 cbr 1000 ------- 2 1.0 2.0 25 25
- 0.166667 1 2 cbr 1000 ------- 2 1.0 2.0 25 25
r 0.1668 1 2 cbr 1000 ------- 2 1.0 2.0 21 21
+ 0.169333 1 2 cbr 1000 ------- 2 1.0 2.0 26 26
- 0.169333 1 2 cbr 1000 ------- 2 1.0 2.0 26 26
r 0.169467 1 2 cbr 1000 ------- 2 1.0 2.0 22 22
+ 0.172 1 2 cbr 1000 ------- 2 1.0 2.0 27 27
- 0.172 1 2 cbr 1000 ------- 2 1.0 2.0 27 27
r 0.172133 1 2 cbr 1000 ------- 2 1.0 2.0 23 23
+ 0.174667 1 2 cbr 1000 ------- 2 1.0 2.0 28 28
- 0.174667 1 2 cbr 1000 ------- 2 1.0 2.0 28 28
r 0.1748 1 2 cbr 1000 ------- 2 1.0 2.0 24 24
+ 0.177333 1 2 cbr 1000 ------- 2 1.0 2.0 29 29
- 0.177333 1 2 cbr 1000 ------- 2 1.0 2.0 29 29
r 0.177467 1 2 cbr 1000 ------- 2 1.0 2.0 25 25
+ 0.18 1 2 cbr 1000 ------- 2 1.0 2.0 30 30
- 0.18 1 2 cbr 1000 ------- 2 1.0 2.0 30 30
r 0.180133 1 2 cbr 1000 ------- 2 1.0 2.0 26 26
+ 0.182667 1 2 cbr 1000 ------- 2 1.0 2.0 31 31
- 0.182667 1 2 cbr 1000 ------- 2 1.0 2.0 31 31
r 0.1828 1 2 cbr 1000 ------- 2 1.0 2.0 27 27
+ 0.185333 1 2 cbr 1000 ------- 2 1.0 2.0 32 32
- 0.185333 1 2 cbr 1000 ------- 2 1.0 2.0 32 32
r 0.185467 1 2 cbr 1000 ------- 2 1.0 2.0 28 28
+ 0.188 1 2 cbr 1000 ------- 2 1.0 2.0 33 33
- 0.188 1 2 cbr 1000 ------- 2 1.0 2.0 33 33
r 0.188133 1 2 cbr 1000 ------- 2 1.0 2.0 29 29
+ 0.190667 1 2 cbr 1000 ------- 2 1.0 2.0 34 34
- 0.190667 1 2 cbr 1000 ------- 2 1.0 2.0 34 34
r 0.1908 1 2 cbr 1000 ------- 2 1.0 2.0 30 30
+ 0.193333 1 2 cbr 1000 ------- 2 1.0 2.0 35 35
- 0.193333 1 2 cbr 1000 ------- 2 1.0 2.0 35 35
r 0.193467 1 2 cbr 1000 ------- 2 1.0 2.0 31 31
+ 0.196 1 2 cbr 1000 ------- 2 1.0 2.0 36 36
- 0.196 1 2 cbr 1000 ------- 2 1.0 2.0 36 36
r 0.196133 1 2 cbr 1000 ------- 2 1.0 2.0 32 32
+ 0.198667 1 2 cbr 1000 ------- 2 1.0 2.0 37 37
- 0.198667 1 2 cbr 1000 ------- 2 1.0 2.0 37 37
r 0.1988 1 2 cbr 1000 ------- 2 1.0 2.0 33 33
+ 0.2 0 1 tcp 1000 ------- 1 0.0 3.0 0 38
- 0.2 0 1 tcp 1000 ------- 1 0.0 3.0 0 38
+ 0.201333 1 2 cbr 1000 ------- 2 1.0 2.0 38 39
- 0.201333 1 2 cbr 1000 ------- 2 1.0 2.0 38 39
r 0.201467 1 2 cbr 1000 ------- 2 1.0 2.0 34 34
+ 0.204 1 2 cbr 1000 ------- 2 1.0 2.0 39 40
- 0.204 1 2 cbr 1000 ------- 2 1.0 2.0 39 40
r 0.204133 1 2 cbr 1000 ------- 2 1.0 2.0 35 35
+ 0.206667 1 2 cbr 1000 ------- 2 1.0 2.0 40 41
- 0.206667 1 2 cbr 1000 ------- 2 1.0 2.0 40 41
r 0.2068 1 2 cbr 1000 ------- 2 1.0 2.0 36 36
+ 0.209333 1 2 cbr 1000 ------- 2 1.0 2.0 41 42
- 0.209333 1 2 cbr 1000 ------- 2 1.0 2.0 41 42
r 0.209467 1 2 cbr 1000 ------- 2 1.0 2.0 37 37
r 0.2108 0 1 tcp 1000 ------- 1 0.0 3.0 0 38
+ 0.2108 1 2 tcp 1000 ------- 1 0.0 3.0 0 38
- 0.2108 1 2 tcp 1000 ------- 1 0.0 3.0 0 38
+ 0.212 1 2 cbr 1000 ------- 2 1.0 2.0 42 43
- 0.212 1 2 cbr 1000 ------- 2 1.0 2.0 42 43
r 0.212133 1 2 cbr 1000 ------- 2 1.0 2.0 38 39
+ 0.214667 1 2 cbr 1000 ------- 2 1.0 2.0 43 44
- 0.214667 1 2 cbr 1000 ------- 2 1.0 2.0 43 44
r 0.2148 1 2 cbr 1000 ------- 2 1.0 2.0 39 40
+ 0.217333 1 2 cbr 1000 ------- 2 1.0 2.0 44 45
- 0.217333 1 2 cbr 1000 ------- 2 1.0 2.0 44 45
r 0.217467 1 2 cbr 1000 ------- 2 1.0 2.0 40 41
+ 0.22 1 2 cbr 1000 ------- 2 1.0 2.0 45 46
- 0.22 1 2 cbr 1000 ------- 2 1.0 2.0 45 46
r 0.220133 1 2 cbr 1000 ------- 2 1.0 2.0 41 42
r 0.2216 1 2 tcp 1000 ------- 1 0.0 3.0 0 38
+ 0.2216 2 3 tcp 1000 ------- 1 0.0 3.0 0 38
- 0.2216 2 3 tcp 1000 ------- 1 0.0 3.0 0 38
+ 0.222667 1 2 cbr 1000 ------- 2 1.0 2.0 46 47
- 0.222667 1 2 cbr 1000 ------- 2 1.0 2.0 46 47
r 0.2228 1 2 cbr 1000 ------- 2 1.0 2.0 42 43
+ 0.225333 1 2 cbr 1000 ------- 2 1.0 2.0 47 48
- 0.225333 1 2 cbr 1000 ------- 2 1.0 2.0 47 48
r 0.225467 1 2 cbr 1000 ------- 2 1.0 2.0 43 44
+ 0.228 1 2 cbr 1000 ------- 2 1.0 2.0 48 49
- 0.228 1 2 cbr 1000 ------- 2 1.0 2.0 48 49
r 0.228133 1 2 cbr 1000 ------- 2 1.0 2.0 44 45
+ 0.230667 1 2 cbr 1000 ------- 2 1.0 2.0 49 50
- 0.230667 1 2 cbr 1000 ------- 2 1.0 2.0 49 50
r 0.2308 1 2 cbr 1000 ------- 2 1.0 2.0 45 46
r 0.2324 2 3 tcp 1000 ------- 1 0.0 3.0 0 38
+ 0.2324 3 2 ack 40 ------- 1 3.0 0.0 0 51
- 0.2324 3 2 ack 40 ------- 1 3.0 0.0 0 51
+ 0.233333 1 2 cbr 1000 ------- 2 1.0 2.0 50 52
- 0.233333 1 2 cbr 1000 ------- 2 1.0 2.0 50 52
r 0.233467 1 2 cbr 1000 ------- 2 1.0 2.0 46 47
+ 0.236 1 2 cbr 1000 ------- 2 1.0 2.0 51 53
- 0.236 1 2 cbr 1000 ------- 2 1.0 2.0 51 53
r 0.236133 1 2 cbr 1000 ------- 2 1.0 2.0 47 48
+ 0.238667 1 2 cbr 1000 ------- 2 1.0 2.0 52 54
- 0.238667 1 2 cbr 1000 ------- 2 1.0 2.0 52 54
r 0.2388 1 2 cbr 1000 ------- 2 1.0 2.0 48 49
+ 0.241333 1 2 cbr 1000 ------- 2 1.0 2.0 53 55
- 0.241333 1 2 cbr 1000 ------- 2 1.0 2.0 53 55
r 0.241467 1 2 cbr 1000 ------- 2 1.0 2.0 49 50
r 0.242432 3 2 ack 40 ------- 1 3.0 0.0 0 51
+ 0.242432 2 1 ack 40 ------- 1 3.0 0.0 0 51
- 0.242432 2 1 ack 40 ------- 1 3.0 0.0 0 51
+ 0.244 1 2 cbr 1000 ------- 2 1.0 2.0 54 56
- 0.244 1 2 cbr 1000 ------- 2 1.0 2.0 54 56
r 0.244133 1 2 cbr 1000 ------- 2 1.0 2.0 50 52
+ 0.246667 1 2 cbr 1000 ------- 2 1.0 2.0 55 57
- 0.246667 1 2 cbr 1000 ------- 2 1.0 2.0 55 57
r 0.2468 1 2 cbr 1000 ------- 2 1.0 2.0 51 53
+ 0.249333 1 2 cbr 1000 ------- 2 1.0 2.0 56 58
- 0.249333 1 2 cbr 1000 ------- 2 1.0 2.0 56 58
r 0.249467 1 2 cbr 1000 ------- 2 1.0 2.0 52 54
+ 0.252 1 2 cbr 1000 ------- 2 1.0 2.0 57 59
- 0.252 1 2 cbr 1000 ------- 2 1.0 2.0 57 59
r 0.252133 1 2 cbr 1000 ------- 2 1.0 2.0 53 55
r 0.252464 2 1 ack 40 ------- 1 3.0 0.0 0 51
+ 0.252464 1 0 ack 40 ------- 1 3.0 0.0 0 51
- 0.252464 1 0 ack 40 ------- 1 3.0 0.0 0 51
+ 0.254667 1 2 cbr 1000 ------- 2 1.0 2.0 58 60
- 0.254667 1 2 cbr 1000 ------- 2 1.0 2.0 58 60
r 0.2548 1 2 cbr 1000 ------- 2 1.0 2.0 54 56
+ 0.257333 1 2 cbr 1000 ------- 2 1.0 2.0 59 61
- 0.257333 1 2 cbr 1000 ------- 2 1.0 2.0 59 61
r 0.257467 1 2 cbr 1000 ------- 2 1.0 2.0 55 57
+ 0.26 1 2 cbr 1000 ------- 2 1.0 2.0 60 62
- 0.26 1 2 cbr 1000 ------- 2 1.0 2.0 60 62
r 0.260133 1 2 cbr 1000 ------- 2 1.0 2.0 56 58
r 0.262496 1 0 ack 40 ------- 1 3.0 0.0 0 51
+ 0.262496 0 1 tcp 1000 ------- 1 0.0 3.0 1 63
- 0.262496 0 1 tcp 1000 ------- 1 0.0 3.0 1 63
+ 0.262667 1 2 cbr 1000 ------- 2 1.0 2.0 61 64
- 0.262667 1 2 cbr 1000 ------- 2 1.0 2.0 61 64
r 0.2628 1 2 cbr 1000 ------- 2 1.0 2.0 57 59
+ 0.265333 1 2 cbr 1000 ------- 2 1.0 2.0 62 65
- 0.265333 1 2 cbr 1000 ------- 2 1.0 2.0 62 65
r 0.265467 1 2 cbr 1000 ------- 2 1.0 2.0 58 60
+ 0.268 1 2 cbr 1000 ------- 2 1.0 2.0 63 66
- 0.268 1 2 cbr 1000 ------- 2 1.0 2.0 63 66
r 0.268133 1 2 cbr 1000 ------- 2 1.0 2.0 59 61
+ 0.270667 1 2 cbr 1000 ------- 2 1.0 2.0 64 67
- 0.270667 1 2 cbr 1000 ------- 2 1.0 2.0 64 67
r 0.2708 1 2 cbr 1000 ------- 2 1.0 2.0 60 62
r 0.273296 0 1 tcp 1000 ------- 1 0.0 3.0 1 63
+ 0.273296 1 2 tcp 1000 ------- 1 0.0 3.0 1 63
- 0.273296 1 2 tcp 1000 ------- 1 0.0 3.0 1 63
+ 0.273333 1 2 cbr 1000 ------- 2 1.0 2.0 65 68
r 0.273467 1 2 cbr 1000 ------- 2 1.0 2.0 61 64
- 0.274096 1 2 cbr 1000 ------- 2 1.0 2.0 65 68
+ 0.276 1 2 cbr 1000 ------- 2 1.0 2.0 66 69
- 0.276 1 2 cbr 1000 ------- 2 1.0 2.0 66 69
r 0.276133 1 2 cbr 1000 ------- 2 1.0 2.0 62 65
+ 0.278667 1 2 cbr 1000 ------- 2 1.0 2.0 67 70
- 0.278667 1 2 cbr 1000 ------- 2 1.0 2.0 67 70
r 0.2788 1 2 cbr 1000 ------- 2 1.0 2.0 63 66
+ 0.281333 1 2 cbr 1000 ------- 2 1.0 2.0 68 71
- 0.281333 1 2 cbr 1000 ------- 2 1.0 2.0 68 71
r 0.281467 1 2 cbr 1000 ------- 2 1.0 2.0 64 67
+ 0.284 1 2 cbr 1000 ------- 2 1.0 2.0 69 72
- 0.284 1 2 cbr 1000 ------- 2 1.0 2.0 69 72
r 0.284096 1 2 tcp 1000 ------- 1 0.0 3.0 1 63
+ 0.284096 2 3 tcp 1000 ------- 1 0.0 3.0 1 63
- 0.284096 2 3 tcp 1000 ------- 1 0.0 3.0 1 63
r 0.284896 1 2 cbr 1000 ------- 2 1.0 2.0 65 68
+ 0.286667 1 2 cbr 1000 ------- 2 1.0 2.0 70 73
- 0.286667 1 2 cbr 1000 ------- 2 1.0 2.0 70 73
r 0.2868 1 2 cbr 1000 ------- 2 1.0 2.0 66 69
+ 0.289333 1 2 cbr 1000 ------- 2 1.0 2.0 71 74
- 0.289333 1 2 cbr 1000 ------- 2 1.0 2.0 71 74
r 0.289467 1 2 cbr 1000 ------- 2 1.0 2.0 67 70
+ 0.292 1 2 cbr 1000 ------- 2 1.0 2.0 72 75
- 0.292 1 2 cbr 1000 ------- 2 1.0 2.0 72 75
r 0.292133 1 2 cbr 1000 ------- 2 1.0 2.0 68 71
+ 0.294667 1 2 cbr 1000 ------- 2 1.0 2.0 73 76
- 0.294667 1 2 cbr 1000 ------- 2 1.0 2.0 73 76
r 0.2948 1 2 cbr 1000 ------- 2 1.0 2.0 69 72
r 0.294896 2 3 tcp 1000 ------- 1 0.0 3.0 1 63
+ 0.294896 3 2 ack 40 ------- 1 3.0 0.0 1 77
- 0.294896 3 2 ack 40 ------- 1 3.0 0.0 1 77
+ 0.297333 1 2 cbr 1000 ------- 2 1.0 2.0 74 78
- 0.297333 1 2 cbr 1000 ------- 2 1.0 2.0 74 78
r 0.297467 1 2 cbr 1000 ------- 2 1.0 2.0 70 73
+ 0.3 1 2 cbr 1000 ------- 2 1.0 2.0 75 79
- 0.3 1 2 cbr 1000 ------- 2 1.0 2.0 75 79
r 0.300133 1 2 cbr 1000 ------- 2 1.0 2.0 71 74
+ 0.302667 1 2 cbr 1000 ------- 2 1.0 2.0 76 80
- 0.302667 1 2 cbr 1000 ------- 2 1.0 2.0 76 80
r 0.3028 1 2 cbr 1000 ------- 2 1.0 2.0 72 75
r 0.304928 3 2 ack 40 ------- 1 3.0 0.0 1 77
+ 0.304928 2 1 ack 40 ------- 1 3.0 0.0 1 77
- 0.304928 2 1 ack 40 ------- 1 3.0 0.0 1 77
+ 0.305333 1 2 cbr 1000 ------- 2 1.0 2.0 77 81
- 0.305333 1 2 cbr 1000 ------- 2 1.0 2.0 77 81
r 0.305467 1 2 cbr 1000 ------- 2 1.0 2.0 73 76
+ 0.308 1 2 cbr 1000 ------- 2 1.0 2.0 78 82
- 0.308 1 2 cbr 1000 ------- 2 1.0 2.0 78 82
r 0.308133 1 2 cbr 1000 ------- 2 1.0 2.0 74 78
+ 0.310667 1 2 cbr 1000 ------- 2 1.0 2.0 79 83
- 0.310667 1 2 cbr 1000 ------- 2 1.0 2.0 79 83
r 0.3108 1 2 cbr 1000 ------- 2 1.0 2.0 75 79
+ 0.313333 1 2 cbr 1000 ------- 2 1.0 2.0 80 84
- 0.313333 1 2 cbr 1000 ------- 2 1.0 2.0 80 84
r 0.313467 1 2 cbr 1000 ------- 2 1.0 2.0 76 80
r 0.31496 2 1 ack 40 ------- 1 3.0 0.0 1 77
+ 0.31496 1 0 ack 40 ------- 1 3.0 0.0 1 77
- 0.31496 1 0 ack 40 ------- 1 3.0 0.0 1 77
+ 0.316 1 2 cbr 1000 ------- 2 1.0 2.0 81 85
- 0.316 1 2 cbr 1000 ------- 2 1.0 2.0 81 85
r 0.316133 1 2 cbr 1000 ------- 2 1.0 2.0 77 81
+ 0.318667 1 2 cbr 1000 ------- 2 1.0 2.0 82 86
- 0.318667 1 2 cbr 1000 ------- 2 1.0 2.0 82 86
r 0.3188 1 2 cbr 1000 ------- 2 1.0 2.0 78 82
+ 0.321333 1 2 cbr 1000 ------- 2 1.0 2.0 83 87
- 0.321333 1 2 cbr 1000 ------- 2 1.0 2.0 83 87
r 0.321467 1 2 cbr 1000 ------- 2 1.0 2.0 79 83
+ 0.324 1 2 cbr 1000 ------- 2 1.0 2.0 84 88
- 0.324 1 2 cbr 1000 ------- 2 1.0 2.0 84 88
r 0.324133 1 2 cbr 1000 ------- 2 1.0 2.0 80 84
r 0.324992 1 0 ack 40 ------- 1 3.0 0.0 1 77
+ 0.324992 0 1 tcp 1000 ------- 1 0.0 3.0 2 89
- 0.324992 0 1 tcp 1000 ------- 1 0.0 3.0 2 89
+ 0.324992 0 1 tcp 1000 ------- 1 0.0 3.0 3 90
+ 0.324992 0 1 tcp 1000 ------- 1 0.0 3.0 4 91
- 0.325792 0 1 tcp 1000 ------- 1 0.0 3.0 3 90
- 0.326592 0 1 tcp 1000 ------- 1 0.0 3.0 4 91
+ 0.326667 1 2 cbr 1000 ------- 2 1.0 2.0 85 92
- 0.326667 1 2 cbr 1000 ------- 2 1.0 2.0 85 92
r 0.3268 1 2 cbr 1000 ------- 2 1.0 2.0 81 85
+ 0.329333 1 2 cbr 1000 ------- 2 1.0 2.0 86 93
- 0.329333 1 2 cbr 1000 ------- 2 1.0 2.0 86 93
r 0.329467 1 2 cbr 1000 ------- 2 1.0 2.0 82 86
+ 0.332 1 2 cbr 1000 ------- 2 1.0 2.0 87 94
- 0.332 1 2 cbr 1000 ------- 2 1.0 2.0 87 94
r 0.332133 1 2 cbr 1000 ------- 2 1.0 2.0 83 87
+ 0.334667 1 2 cbr 1000 ------- 2 1.0 2.0 88 95
- 0.334667 1 2 cbr 1000 ------- 2 1.0 2.0 88 95
r 0.3348 1 2 cbr 1000 ------- 2 1.0 2.0 84 88
r 0.335792 0 1 tcp 1000 ------- 1 0.0 3.0 2 89
+ 0.335792 1 2 tcp 1000 ------- 1 0.0 3.0 2 89
- 0.335792 1 2 tcp 1000 ------- 1 0.0 3.0 2 89
r 0.336592 0 1 tcp 1000 ------- 1 0.0 3.0 3 90
+ 0.336592 1 2 tcp 1000 ------- 1 0.0 3.0 3 90
- 0.336592 1 2 tcp 1000 ------- 1 0.0 3.0 3 90
+ 0.337333 1 2 cbr 1000 ------- 2 1.0 2.0 89 96
r 0.337392 0 1 tcp 1000 ------- 1 0.0 3.0 4 91
+ 0.337392 1 2 tcp 1000 ------- 1 0.0 3.0 4 91
- 0.337392 1 2 cbr 1000 ------- 2 1.0 2.0 89 96
r 0.337467 1 2 cbr 1000 ------- 2 1.0 2.0 85 92
- 0.338192 1 2 tcp 1000 ------- 1 0.0 3.0 4 91
+ 0.34 1 2 cbr 1000 ------- 2 1.0 2.0 90 97
- 0.34 1 2 cbr 1000 ------- 2 1.0 2.0 90 97
r 0.340133 1 2 cbr 1000 ------- 2 1.0 2.0 86 93
+ 0.342667 1 2 cbr 1000 ------- 2 1.0 2.0 91 98
- 0.342667 1 2 cbr 1000 ------- 2 1.0 2.0 91 98
r 0.3428 1 2 cbr 1000 ------- 2 1.0 2.0 87 94
+ 0.345333 1 2 cbr 1000 ------- 2 1.0 2.0 92 99
- 0.345333 1 2 cbr 1000 ------- 2 1.0 2.0 92 99
r 0.345467 1 2 cbr 1000 ------- 2 1.0 2.0 88 95
r 0.346592 1 2 tcp 1000 ------- 1 0.0 3.0 2 89
+ 0.346592 2 3 tcp 1000 ------- 1 0.0 3.0 2 89
- 0.346592 2 3 tcp 1000 ------- 1 0.0 3.0 2 89
r 0.347392 1 2 tcp 1000 ------- 1 0.0 3.0 3 90
+ 0.347392 2 3 tcp 1000 ------- 1 0.0 3.0 3 90
- 0.347392 2 3 tcp 1000 ------- 1 0.0 3.0 3 90
+ 0.348 1 2 cbr 1000 ------- 2 1.0 2.0 93 100
- 0.348 1 2 cbr 1000 ------- 2 1.0 2.0 93 100
r 0.348192 1 2 cbr 1000 ------- 2 1.0 2.0 89 96
r 0.348992 1 2 tcp 1000 ------- 1 0.0 3.0 4 91
+ 0.348992 2 3 tcp 1000 ------- 1 0.0 3.0 4 91
- 0.348992 2 3 tcp 1000 ------- 1 0.0 3.0 4 91
+ 0.350667 1 2 cbr 1000 ------- 2 1.0 2.0 94 101
- 0.350667 1 2 cbr 1000 ------- 2 1.0 2.0 94 101
r 0.3508 1 2 cbr 1000 ------- 2 1.0 2.0 90 97
+ 0.353333 1 2 cbr 1000 ------- 2 1.0 2.0 95 102
- 0.353333 1 2 cbr 1000 ------- 2 1.0 2.0 95 102
r 0.353467 1 2 cbr 1000 ------- 2 1.0 2.0 91 98
+ 0.356 1 2 cbr 1000 ------- 2 1.0 2.0 96 103
- 0.356 1 2 cbr 1000 ------- 2 1.0 2.0 96 103
r 0.356133 1 2 cbr 1000 ------- 2 1.0 2.0 92 99
r 0.357392 2 3 tcp 1000 ------- 1 0.0 3.0 2 89
+ 0.357392 3 2 ack 40 ------- 1 3.0 0.0 2 104
- 0.357392 3 2 ack 40 ------- 1 3.0 0.0 2 104
r 0.358192 2 3 tcp 1000 ------- 1 0.0 3.0 3 90
+ 0.358192 3 2 ack 40 ------- 1 3.0 0.0 3 105
- 0.358192 3 2 ack 40 ------- 1 3.0 0.0 3 105
+ 0.358667 1 2 cbr 1000 ------- 2 1.0 2.0 97 106
- 0.358667 1 2 cbr 1000 ------- 2 1.0 2.0 97 106
r 0.3588 1 2 cbr 1000 ------- 2 1.0 2.0 93 100
r 0.359792 2 3 tcp 1000 ------- 1 0.0 3.0 4 91
+ 0.359792 3 2 ack 40 ------- 1 3.0 0.0 4 107
- 0.359792 3 2 ack 40 ------- 1 3.0 0.0 4 107
+ 0.361333 1 2 cbr 1000 ------- 2 1.0 2.0 98 108
- 0.361333 1 2 cbr 1000 ------- 2 1.0 2.0 98 108
r 0.361467 1 2 cbr 1000 ------- 2 1.0 2.0 94 101
+ 0.364 1 2 cbr 1000 ------- 2 1.0 2.0 99 109
- 0.364 1 2 cbr 1000 ------- 2 1.0 2.0 99 109
r 0.364133 1 2 cbr 1000 ------- 2 1.0 2.0 95 102
+ 0.366667 1 2 cbr 1000 ------- 2 1.0 2.0 100 110
- 0.366667 1 2 cbr 1000 ------- 2 1.0 2.0 100 110
r 0.3668 1 2 cbr 1000 ------- 2 1.0 2.0 96 103
r 0.367424 3 2 ack 40 ------- 1 3.0 0.0 2 104
+ 0.367424 2 1 ack 40 ------- 1 3.0 0.0 2 104
- 0.367424 2 1 ack 40 ------- 1 3.0 0.0 2 104
r 0.368224 3 2 ack 40 ------- 1 3.0 0.0 3 105
+ 0.368224 2 1 ack 40 ------- 1 3.0 0.0 3 105
- 0.368224 2 1 ack 40 ------- 1 3.0 0.0 3 105
+ 0.369333 1 2 cbr 1000 ------- 2 1.0 2.0 101 111
- 0.369333 1 2 cbr 1000 ------- 2 1.0 2.0 101 111
r 0.369467 1 2 cbr 1000 ------- 2 1.0 2.0 97 106
r 0.369824 3 2 ack 40 ------- 1 3.0 0.0 4 107
+ 0.369824 2 1 ack 40 ------- 1 3.0 0.0 4 107
- 0.369824 2 1 ack 40 ------- 1 3.0 0.0 4 107
+ 0.372 1 2 cbr 1000 ------- 2 1.0 2.0 102 112
- 0.372 1 2 cbr 1000 ------- 2 1.0 2.0 102 112
r 0.372133 1 2 cbr 1000 ------- 2 1.0 2.0 98 108
+ 0.374667 1 2 cbr 1000 ------- 2 1.0 2.0 103 113
- 0.374667 1 2 cbr 1000 ------- 2 1.0 2.0 103 113
r 0.3748 1 2 cbr 1000 ------- 2 1.0 2.0 99 109
+ 0.377333 1 2 cbr 1000 ------- 2 1.0 2.0 104 114
- 0.377333 1 2 cbr 1000 ------- 2 1.0 2.0 104 114
r 0.377456 2 1 ack 40 ------- 1 3.0 0.0 2 104
+ 0.377456 1 0 ack 40 ------- 1 3.0 0.0 2 104
- 0.377456 1 0 ack 40 ------- 1 3.0 0.0 2 104
r 0.377467 1 2 cbr 1000 ------- 2 1.0 2.0 100 110
r 0.378256 2 1 ack 40 ------- 1 3.0 0.0 3 105
+ 0.378256 1 0 ack 40 ------- 1 3.0 0.0 3 105
- 0.378256 1 0 ack 40 ------- 1 3.0 0.0 3 105
r 0.379856 2 1 ack 40 ------- 1 3.0 0.0 4 107
+ 0.379856 1 0 ack 40 ------- 1 3.0 0.0 4 107
- 0.379856 1 0 ack 40 ------- 1 3.0 0.0 4 107
+ 0.38 1 2 cbr 1000 ------- 2 1.0 2.0 105 115
- 0.38 1 2 cbr 1000 ------- 2 1.0 2.0 105 115
r 0.380133 1 2 cbr 1000 ------- 2 1.0 2.0 101 111
+ 0.382667 1 2 cbr 1000 ------- 2 1.0 2.0 106 116
- 0.382667 1 2 cbr 1000 ------- 2 1.0 2.0 106 116
r 0.3828 1 2 cbr 1000 ------- 2 1.0 2.0 102 112
+ 0.385333 1 2 cbr 1000 ------- 2 1.0 2.0 107 117
- 0.385333 1 2 cbr 1000 ------- 2 1.0 2.0 107 117
r 0.385467 1 2 cbr 1000 ------- 2 1.0 2.0 103 113
r 0.387488 1 0 ack 40 ------- 1 3.0 0.0 2 104
+ 0.387488 0 1 tcp 1000 ------- 1 0.0 3.0 5 118
- 0.387488 0 1 tcp 1000 ------- 1 0.0 3.0 5 118
+ 0.388 1 2 cbr 1000 ------- 2 1.0 2.0 108 119
- 0.388 1 2 cbr 1000 ------- 2 1.0 2.0 108 119
r 0.388133 1 2 cbr 1000 ------- 2 1.0 2.0 104 114
r 0.388288 1 0 ack 40 ------- 1 3.0 0.0 3 105
+ 0.388288 0 1 tcp 1000 ------- 1 0.0 3.0 6 120
- 0.388288 0 1 tcp 1000 ------- 1 0.0 3.0 6 120
r 0.389888 1 0 ack 40 ------- 1 3.0 0.0 4 107
+ 0.389888 0 1 tcp 1000 ------- 1 0.0 3.0 7 121
- 0.389888 0 1 tcp 1000 ------- 1 0.0 3.0 7 121
+ 0.390667 1 2 cbr 1000 ------- 2 1.0 2.0 109 122
- 0.390667 1 2 cbr 1000 ------- 2 1.0 2.0 109 122
r 0.3908 1 2 cbr 1000 ------- 2 1.0 2.0 105 115
+ 0.393333 1 2 cbr 1000 ------- 2 1.0 2.0 110 123
- 0.393333 1 2 cbr 1000 ------- 2 1.0 2.0 110 123
r 0.393467 1 2 cbr 1000 ------- 2 1.0 2.0 106 116
+ 0.396 1 2 cbr 1000 ------- 2 1.0 2.0 111 124
- 0.396 1 2 cbr 1000 ------- 2 1.0 2.0 111 124
r 0.396133 1 2 cbr 1000 ------- 2 1.0 2.0 107 117
r 0.398288 0 1 tcp 1000 ------- 1 0.0 3.0 5 118
+ 0.398288 1 2 tcp 1000 ------- 1 0.0 3.0 5 118
- 0.398288 1 2 tcp 1000 ------- 1 0.0 3.0 5 118
+ 0.398667 1 2 cbr 1000 ------- 2 1.0 2.0 112 125
r 0.3988 1 2 cbr 1000 ------- 2 1.0 2.0 108 119
r 0.399088 0 1 tcp 1000 ------- 1 0.0 3.0 6 120
+ 0.399088 1 2 tcp 1000 ------- 1 0.0 3.0 6 120
- 0.399088 1 2 cbr 1000 ------- 2 1.0 2.0 112 125
- 0.399888 1 2 tcp 1000 ------- 1 0.0 3.0 6 120
r 0.400688 0 1 tcp 1000 ------- 1 0.0 3.0 7 121
+ 0.400688 1 2 tcp 1000 ------- 1 0.0 3.0 7 121
- 0.400688 1 2 tcp 1000 ------- 1 0.0 3.0 7 121
+ 0.401333 1 2 cbr 1000 ------- 2 1.0 2.0 113 126
r 0.401467 1 2 cbr 1000 ------- 2 1.0 2.0 109 122
- 0.401488 1 2 cbr 1000 ------- 2 1.0 2.0 113 126
+ 0.404 1 2 cbr 1000 ------- 2 1.0 2.0 114 127
- 0.404 1 2 cbr 1000 ------- 2 1.0 2.0 114 127
r 0.404133 1 2 cbr 1000 ------- 2 1.0 2.0 110 123
+ 0.406667 1 2 cbr 1000 ------- 2 1.0 2.0 115 128
- 0.406667 1 2 cbr 1000 ------- 2 1.0 2.0 115 128
r 0.4068 1 2 cbr 1000 ------- 2 1.0 2.0 111 124
r 0.409088 1 2 tcp 1000 ------- 1 0.0 3.0 5 118
+ 0.409088 2 3 tcp 1000 ------- 1 0.0 3.0 5 118
- 0.409088 2 3 tcp 1000 ------- 1 0.0 3.0 5 118
+ 0.409333 1 2 cbr 1000 ------- 2 1.0 2.0 116 129
- 0.409333 1 2 cbr 1000 ------- 2 1.0 2.0 116 129
r 0.409888 1 2 cbr 1000 ------- 2 1.0 2.0 112 125
r 0.410688 1 2 tcp 1000 ------- 1 0.0 3.0 6 120
+ 0.410688 2 3 tcp 1000 ------- 1 0.0 3.0 6 120
- 0.410688 2 3 tcp 1000 ------- 1 0.0 3.0 6 120
r 0.411488 1 2 tcp 1000 ------- 1 0.0 3.0 7 121
+ 0.411488 2 3 tcp 1000 ------- 1 0.0 3.0 7 121
- 0.411488 2 3 tcp 1000 ------- 1 0.0 3.0 7 121
+ 0.412 1 2 cbr 1000 ------- 2 1.0 2.0 117 130
- 0.412 1 2 cbr 1000 ------- 2 1.0 2.0 117 130
r 0.412288 1 2 cbr 1000 ------- 2 1.0 2.0 113 126
+ 0.414667 1 2 cbr 1000 ------- 2 1.0 2.0 118 131
- 0.414667 1 2 cbr 1000 ------- 2 1.0 2.0 118 131
r 0.4148 1 2 cbr 1000 ------- 2 1.0 2.0 114 127
+ 0.417333 1 2 cbr 1000 ------- 2 1.0 2.0 119 132
- 0.417333 1 2 cbr 1000 ------- 2 1.0 2.0 119 132
r 0.417467 1 2 cbr 1000 ------- 2 1.0 2.0 115 128
r 0.419888 2 3 tcp 1000 ------- 1 0.0 3.0 5 118
+ 0.419888 3 2 ack 40 ------- 1 3.0 0.0 5 133
- 0.419888 3 2 ack 40 ------- 1 3.0 0.0 5 133
+ 0.42 1 2 cbr 1000 ------- 2 1.0 2.0 120 134
- 0.42 1 2 cbr 1000 ------- 2 1.0 2.0 120 134
r 0.420133 1 2 cbr 1000 ------- 2 1.0 2.0 116 129
r 0.421488 2 3 tcp 1000 ------- 1 0.0 3.0 6 120
+ 0.421488 3 2 ack 40 ------- 1 3.0 0.0 6 135
- 0.421488 3 2 ack 40 ------- 1 3.0 0.0 6 135
r 0.422288 2 3 tcp 1000 ------- 1 0.0 3.0 7 121
+ 0.422288 3 2 ack 40 ------- 1 3.0 0.0 7 136
- 0.422288 3 2 ack 40 ------- 1 3.0 0.0 7 136
+ 0.422667 1 2 cbr 1000 ------- 2 1.0 2.0 121 137
- 0.422667 1 2 cbr 1000 ------- 2 1.0 2.0 121 137
r 0.4228 1 2 cbr 1000 ------- 2 1.0 2.0 117 130
+ 0.425333 1 2 cbr 1000 ------- 2 1.0 2.0 122 138
- 0.425333 1 2 cbr 1000 ------- 2 1.0 2.0 122 138
r 0.425467 1 2 cbr 1000 ------- 2 1.0 2.0 118 131
+ 0.428 1 2 cbr 1000 ------- 2 1.0 2.0 123 139
- 0.428 1 2 cbr 1000 ------- 2 1.0 2.0 123 139
r 0.428133 1 2 cbr 1000 ------- 2 1.0 2.0 119 132
r 0.42992 3 2 ack 40 ------- 1 3.0 0.0 5 133
+ 0.42992 2 1 ack 40 ------- 1 3.0 0.0 5 133
- 0.42992 2 1 ack 40 ------- 1 3.0 0.0 5 133
+ 0.430667 1 2 cbr 1000 ------- 2 1.0 2.0 124 140
- 0.430667 1 2 cbr 1000 ------- 2 1.0 2.0 124 140
r 0.4308 1 2 cbr 1000 ------- 2 1.0 2.0 120 134
r 0.43152 3 2 ack 40 ------- 1 3.0 0.0 6 135
+ 0.43152 2 1 ack 40 ------- 1 3.0 0.0 6 135
- 0.43152 2 1 ack 40 ------- 1 3.0 0.0 6 135
r 0.43232 3 2 ack 40 ------- 1 3.0 0.0 7 136
+ 0.43232 2 1 ack 40 ------- 1 3.0 0.0 7 136
- 0.43232 2 1 ack 40 ------- 1 3.0 0.0 7 136
+ 0.433333 1 2 cbr 1000 ------- 2 1.0 2.0 125 141
- 0.433333 1 2 cbr 1000 ------- 2 1.0 2.0 125 141
r 0.433467 1 2 cbr 1000 ------- 2 1.0 2.0 121 137
+ 0.436 1 2 cbr 1000 ------- 2 1.0 2.0 126 142
- 0.436 1 2 cbr 1000 ------- 2 1.0 2.0 126 142
r 0.436133 1 2 cbr 1000 ------- 2 1.0 2.0 122 138
+ 0.438667 1 2 cbr 1000 ------- 2 1.0 2.0 127 143
- 0.438667 1 2 cbr 1000 ------- 2 1.0 2.0 127 143
r 0.4388 1 2 cbr 1000 ------- 2 1.0 2.0 123 139
r 0.439952 2 1 ack 40 ------- 1 3.0 0.0 5 133
+ 0.439952 1 0 ack 40 ------- 1 3.0 0.0 5 133
- 0.439952 1 0 ack 40 ------- 1 3.0 0.0 5 133
+ 0.441333 1 2 cbr 1000 ------- 2 1.0 2.0 128 144
- 0.441333 1 2 cbr 1000 ------- 2 1.0 2.0 128 144
r 0.441467 1 2 cbr 1000 ------- 2 1.0 2.0 124 140
r 0.441552 2 1 ack 40 ------- 1 3.0 0.0 6 135
+ 0.441552 1 0 ack 40 ------- 1 3.0 0.0 6 135
- 0.441552 1 0 ack 40 ------- 1 3.0 0.0 6 135
r 0.442352 2 1 ack 40 ------- 1 3.0 0.0 7 136
+ 0.442352 1 0 ack 40 ------- 1 3.0 0.0 7 136
- 0.442352 1 0 ack 40 ------- 1 3.0 0.0 7 136
+ 0.444 1 2 cbr 1000 ------- 2 1.0 2.0 129 145
- 0.444 1 2 cbr 1000 ------- 2 1.0 2.0 129 145
r 0.444133 1 2 cbr 1000 ------- 2 1.0 2.0 125 141
+ 0.446667 1 2 cbr 1000 ------- 2 1.0 2.0 130 146
- 0.446667 1 2 cbr 1000 ------- 2 1.0 2.0 130 146
r 0.4468 1 2 cbr 1000 ------- 2 1.0 2.0 126 142
+ 0.449333 1 2 cbr 1000 ------- 2 1.0 2.0 131 147
- 0.449333 1 2 cbr 1000 ------- 2 1.0 2.0 131 147
r 0.449467 1 2 cbr 1000 ------- 2 1.0 2.0 127 143
r 0.449984 1 0 ack 40 ------- 1 3.0 0.0 5 133
+ 0.449984 0 1 tcp 1000 ------- 1 0.0 3.0 8 148
- 0.449984 0 1 tcp 1000 ------- 1 0.0 3.0 8 148
+ 0.449984 0 1 tcp 1000 ------- 1 0.0 3.0 9 149
- 0.450784 0 1 tcp 1000 ------- 1 0.0 3.0 9 149
r 0.451584 1 0 ack 40 ------- 1 3.0 0.0 6 135
+ 0.451584 0 1 tcp 1000 ------- 1 0.0 3.0 10 150
+ 0.451584 0 1 tcp 1000 ------- 1 0.0 3.0 11 151
- 0.451584 0 1 tcp 1000 ------- 1 0.0 3.0 10 150
+ 0.452 1 2 cbr 1000 ------- 2 1.0 2.0 132 152
- 0.452 1 2 cbr 1000 ------- 2 1.0 2.0 132 152
r 0.452133 1 2 cbr 1000 ------- 2 1.0 2.0 128 144
r 0.452384 1 0 ack 40 ------- 1 3.0 0.0 7 136
+ 0.452384 0 1 tcp 1000 ------- 1 0.0 3.0 12 153
+ 0.452384 0 1 tcp 1000 ------- 1 0.0 3.0 13 154
- 0.452384 0 1 tcp 1000 ------- 1 0.0 3.0 11 151
- 0.453184 0 1 tcp 1000 ------- 1 0.0 3.0 12 153
- 0.453984 0 1 tcp 1000 ------- 1 0.0 3.0 13 154
+ 0.454667 1 2 cbr 1000 ------- 2 1.0 2.0 133 155
- 0.454667 1 2 cbr 1000 ------- 2 1.0 2.0 133 155
r 0.4548 1 2 cbr 1000 ------- 2 1.0 2.0 129 145
+ 0.457333 1 2 cbr 1000 ------- 2 1.0 2.0 134 156
- 0.457333 1 2 cbr 1000 ------- 2 1.0 2.0 134 156
r 0.457467 1 2 cbr 1000 ------- 2 1.0 2.0 130 146
+ 0.46 1 2 cbr 1000 ------- 2 1.0 2.0 135 157
- 0.46 1 2 cbr 1000 ------- 2 1.0 2.0 135 157
r 0.460133 1 2 cbr 1000 ------- 2 1.0 2.0 131 147
r 0.460784 0 1 tcp 1000 ------- 1 0.0 3.0 8 148
+ 0.460784 1 2 tcp 1000 ------- 1 0.0 3.0 8 148
- 0.4608 1 2 tcp 1000 ------- 1 0.0 3.0 8 148
r 0.461584 0 1 tcp 1000 ------- 1 0.0 3.0 9 149
+ 0.461584 1 2 tcp 1000 ------- 1 0.0 3.0 9 149
- 0.4616 1 2 tcp 1000 ------- 1 0.0 3.0 9 149
r 0.462384 0 1 tcp 1000 ------- 1 0.0 3.0 10 150
+ 0.462384 1 2 tcp 1000 ------- 1 0.0 3.0 10 150
- 0.4624 1 2 tcp 1000 ------- 1 0.0 3.0 10 150
+ 0.462667 1 2 cbr 1000 ------- 2 1.0 2.0 136 158
r 0.4628 1 2 cbr 1000 ------- 2 1.0 2.0 132 152
r 0.463184 0 1 tcp 1000 ------- 1 0.0 3.0 11 151
+ 0.463184 1 2 tcp 1000 ------- 1 0.0 3.0 11 151
- 0.4632 1 2 cbr 1000 ------- 2 1.0 2.0 136 158
r 0.463984 0 1 tcp 1000 ------- 1 0.0 3.0 12 153
+ 0.463984 1 2 tcp 1000 ------- 1 0.0 3.0 12 153
- 0.464 1 2 tcp 1000 ------- 1 0.0 3.0 11 151
r 0.464784 0 1 tcp 1000 ------- 1 0.0 3.0 13 154
+ 0.464784 1 2 tcp 1000 ------- 1 0.0 3.0 13 154
- 0.4648 1 2 tcp 1000 ------- 1 0.0 3.0 12 153
+ 0.465333 1 2 cbr 1000 ------- 2 1.0 2.0 137 159
r 0.465467 1 2 cbr 1000 ------- 2 1.0 2.0 133 155
- 0.4656 1 2 tcp 1000 ------- 1 0.0 3.0 13 154
- 0.4664 1 2 cbr 1000 ------- 2 1.0 2.0 137 159
+ 0.468 1 2 cbr 1000 ------- 2 1.0 2.0 138 160
- 0.468 1 2 cbr 1000 ------- 2 1.0 2.0 138 160
r 0.468133 1 2 cbr 1000 ------- 2 1.0 2.0 134 156
+ 0.470667 1 2 cbr 1000 ------- 2 1.0 2.0 139 161
- 0.470667 1 2 cbr 1000 ------- 2 1.0 2.0 139 161
r 0.4708 1 2 cbr 1000 ------- 2 1.0 2.0 135 157
r 0.4716 1 2 tcp 1000 ------- 1 0.0 3.0 8 148
+ 0.4716 2 3 tcp 1000 ------- 1 0.0 3.0 8 148
- 0.4716 2 3 tcp 1000 ------- 1 0.0 3.0 8 148
r 0.4724 1 2 tcp 1000 ------- 1 0.0 3.0 9 149
+ 0.4724 2 3 tcp 1000 ------- 1 0.0 3.0 9 149
- 0.4724 2 3 tcp 1000 ------- 1 0.0 3.0 9 149
r 0.4732 1 2 tcp 1000 ------- 1 0.0 3.0 10 150
+ 0.4732 2 3 tcp 1000 ------- 1 0.0 3.0 10 150
- 0.4732 2 3 tcp 1000 ------- 1 0.0 3.0 10 150
+ 0.473333 1 2 cbr 1000 ------- 2 1.0 2.0 140 162
- 0.473333 1 2 cbr 1000 ------- 2 1.0 2.0 140 162
r 0.474 1 2 cbr 1000 ------- 2 1.0 2.0 136 158
r 0.4748 1 2 tcp 1000 ------- 1 0.0 3.0 11 151
+ 0.4748 2 3 tcp 1000 ------- 1 0.0 3.0 11 151
- 0.4748 2 3 tcp 1000 ------- 1 0.0 3.0 11 151
r 0.4756 1 2 tcp 1000 ------- 1 0.0 3.0 12 153
+ 0.4756 2 3 tcp 1000 ------- 1 0.0 3.0 12 153
- 0.4756 2 3 tcp 1000 ------- 1 0.0 3.0 12 153
+ 0.476 1 2 cbr 1000 ------- 2 1.0 2.0 141 163
- 0.476 1 2 cbr 1000 ------- 2 1.0 2.0 141 163
r 0.4764 1 2 tcp 1000 ------- 1 0.0 3.0 13 154
+ 0.4764 2 3 tcp 1000 ------- 1 0.0 3.0 13 154
- 0.4764 2 3 tcp 1000 ------- 1 0.0 3.0 13 154
r 0.4772 1 2 cbr 1000 ------- 2 1.0 2.0 137 159
+ 0.478667 1 2 cbr 1000 ------- 2 1.0 2.0 142 164
- 0.478667 1 2 cbr 1000 ------- 2 1.0 2.0 142 164
r 0.4788 1 2 cbr 1000 ------- 2 1.0 2.0 138 160
+ 0.481333 1 2 cbr 1000 ------- 2 1.0 2.0 143 165
- 0.481333 1 2 cbr 1000 ------- 2 1.0 2.0 143 165
r 0.481467 1 2 cbr 1000 ------- 2 1.0 2.0 139 161
r 0.4824 2 3 tcp 1000 ------- 1 0.0 3.0 8 148
+ 0.4824 3 2 ack 40 ------- 1 3.0 0.0 8 166
- 0.4824 3 2 ack 40 ------- 1 3.0 0.0 8 166
r 0.4832 2 3 tcp 1000 ------- 1 0.0 3.0 9 149
+ 0.4832 3 2 ack 40 ------- 1 3.0 0.0 9 167
- 0.4832 3 2 ack 40 ------- 1 3.0 0.0 9 167
+ 0.484 1 2 cbr 1000 ------- 2 1.0 2.0 144 168
- 0.484 1 2 cbr 1000 ------- 2 1.0 2.0 144 168
r 0.484 2 3 tcp 1000 ------- 1 0.0 3.0 10 150
+ 0.484 3 2 ack 40 ------- 1 3.0 0.0 10 169
- 0.484 3 2 ack 40 ------- 1 3.0 0.0 10 169
r 0.484133 1 2 cbr 1000 ------- 2 1.0 2.0 140 162
r 0.4856 2 3 tcp 1000 ------- 1 0.0 3.0 11 151
+ 0.4856 3 2 ack 40 ------- 1 3.0 0.0 11 170
- 0.4856 3 2 ack 40 ------- 1 3.0 0.0 11 170