+ 0.1 1 2 cbr 1000 ------- 2 1.0 2.0 0 0
- 0.1 1 2 cbr 1000 ------- 2 1.0 2.0 0 0
+ 0.101143 1 2 cbr 1000 ------- 2 1.0 2.0 1 1
- 0.101143 1 2 cbr 1000 ------- 2 1.0 2.0 1 1
+ 0.102286 1 2 cbr 1000 ------- 2 1.0 2.0 2 2
- 0.102286 1 2 cbr 1000 ------- 2 1.0 2.0 2 2
+ 0.103429 1 2 cbr 1000 ------- 2 1.0 2.0 3 3
- 0.103429 1 2 cbr 1000 ------- 2 1.0 2.0 3 3
+ 0.104571 1 2 cbr 1000 ------- 2 1.0 2.0 4 4
- 0.104571 1 2 cbr 1000 ------- 2 1.0 2.0 4 4
+ 0.105714 1 2 cbr 1000 ------- 2 1.0 2.0 5 5
- 0.105714 1 2 cbr 1000 ------- 2 1.0 2.0 5 5
+ 0.106857 1 2 cbr 1000 ------- 2 1.0 2.0 6 6
- 0.106857 1 2 cbr 1000 ------- 2 1.0 2.0 6 6
+ 0.108 1 2 cbr 1000 ------- 2 1.0 2.0 7 7
- 0.108 1 2 cbr 1000 ------- 2 1.0 2.0 7 7
+ 0.109143 1 2 cbr 1000 ------- 2 1.0 2.0 8 8
- 0.109143 1 2 cbr 1000 ------- 2 1.0 2.0 8 8
+ 0.110286 1 2 cbr 1000 ------- 2 1.0 2.0 9 9
- 0.110286 1 2 cbr 1000 ------- 2 1.0 2.0 9 9
r 0.1108 1 2 cbr 1000 ------- 2 1.0 2.0 0 0
+ 0.111429 1 2 cbr 1000 ------- 2 1.0 2.0 10 10
- 0.111429 1 2 cbr 1000 ------- 2 1.0 2.0 10 10
r 0.111943 1 2 cbr 1000 ------- 2 1.0 2.0 1 1
+ 0.112571 1 2 cbr 1000 ------- 2 1.0 2.0 11 11
- 0.112571 1 2 cbr 1000 ------- 2 1.0 2.0 11 11
r 0.113086 1 2 cbr 1000 ------- 2 1.0 2.0 2 2
+ 0.113714 1 2 cbr 1000 ------- 2 1.0 2.0 12 12
- 0.113714 1 2 cbr 1000 ------- 2 1.0 2.0 12 12
r 0.114229 1 2 cbr 1000 ------- 2 1.0 2.0 3 3
+ 0.114857 1 2 cbr 1000 ------- 2 1.0 2.0 13 13
- 0.114857 1 2 cbr 1000 ------- 2 1.0 2.0 13 13
r 0.115371 1 2 cbr 1000 ------- 2 1.0 2.0 4 4
+ 0.116 1 2 cbr 1000 ------- 2 1.0 2.0 14 14
- 0.116 1 2 cbr 1000 ------- 2 1.0 2.0 14 14
r 0.116514 1 2 cbr 1000 ------- 2 1.0 2.0 5 5
+ 0.117143 1 2 cbr 1000 ------- 2 1.0 2.0 15 15
- 0.117143 1 2 cbr 1000 ------- 2 1.0 2.0 15 15
r 0.117657 1 2 cbr 1000 ------- 2 1.0 2.0 6 6
+ 0.118286 1 2 cbr 1000 ------- 2 1.0 2.0 16 16
- 0.118286 1 2 cbr 1000 ------- 2 1.0 2.0 16 16
r 0.1188 1 2 cbr 1000 ------- 2 1.0 2.0 7 7
+ 0.119429 1 2 cbr 1000 ------- 2 1.0 2.0 17 17
- 0.119429 1 2 cbr 1000 ------- 2 1.0 2.0 17 17
r 0.119943 1 2 cbr 1000 ------- 2 1.0 2.0 8 8
+ 0.120571 1 2 cbr 1000 ------- 2 1.0 2.0 18 18
- 0.120571 1 2 cbr 1000 ------- 2 1.0 2.0 18 18
r 0.121086 1 2 cbr 1000 ------- 2 1.0 2.0 9 9
+ 0.121714 1 2 cbr 1000 ------- 2 1.0 2.0 19 19
- 0.121714 1 2 cbr 1000 ------- 2 1.0 2.0 19 19
r 0.122229 1 2 cbr 1000 ------- 2 1.0 2.0 10 10
+ 0.122857 1 2 cbr 1000 ------- 2 1.0 2.0 20 20
- 0.122857 1 2 cbr 1000 ------- 2 1.0 2.0 20 20
r 0.123371 1 2 cbr 1000 ------- 2 1.0 2.0 11 11
+ 0.124 1 2 cbr 1000 ------- 2 1.0 2.0 21 21
- 0.124 1 2 cbr 1000 ------- 2 1.0 2.0 21 21
r 0.124514 1 2 cbr 1000 ------- 2 1.0 2.0 12 12
+ 0.125143 1 2 cbr 1000 ------- 2 1.0 2.0 22 22
- 0.125143 1 2 cbr 1000 ------- 2 1.0 2.0 22 22
r 0.125657 1 2 cbr 1000 ------- 2 1.0 2.0 13 13
+ 0.126286 1 2 cbr 1000 ------- 2 1.0 2.0 23 23
- 0.126286 1 2 cbr 1000 ------- 2 1.0 2.0 23 23
r 0.1268 1 2 cbr 1000 ------- 2 1.0 2.0 14 14
+ 0.127429 1 2 cbr 1000 ------- 2 1.0 2.0 24 24
- 0.127429 1 2 cbr 1000 ------- 2 1.0 2.0 24 24
r 0.127943 1 2 cbr 1000 ------- 2 1.0 2.0 15 15
+ 0.128571 1 2 cbr 1000 ------- 2 1.0 2.0 25 25
- 0.128571 1 2 cbr 1000 ------- 2 1.0 2.0 25 25
r 0.129086 1 2 cbr 1000 ------- 2 1.0 2.0 16 16
+ 0.129714 1 2 cbr 1000 ------- 2 1.0 2.0 26 26
- 0.129714 1 2 cbr 1000 ------- 2 1.0 2.0 26 26
r 0.130229 1 2 cbr 1000 ------- 2 1.0 2.0 17 17
+ 0.130857 1 2 cbr 1000 ------- 2 1.0 2.0 27 27
- 0.130857 1 2 cbr 1000 ------- 2 1.0 2.0 27 27
r 0.131371 1 2 cbr 1000 ------- 2 1.0 2.0 18 18
+ 0.132 1 2 cbr 1000 ------- 2 1.0 2.0 28 28
- 0.132 1 2 cbr 1000 ------- 2 1.0 2.0 28 28
r 0.132514 1 2 cbr 1000 ------- 2 1.0 2.0 19 19
+ 0.133143 1 2 cbr 1000 ------- 2 1.0 2.0 29 29
- 0.133143 1 2 cbr 1000 ------- 2 1.0 2.0 29 29
r 0.133657 1 2 cbr 1000 ------- 2 1.0 2.0 20 20
+ 0.134286 1 2 cbr 1000 ------- 2 1.0 2.0 30 30
- 0.134286 1 2 cbr 1000 ------- 2 1.0 2.0 30 30
r 0.1348 1 2 cbr 1000 ------- 2 1.0 2.0 21 21
+ 0.135429 1 2 cbr 1000 ------- 2 1.0 2.0 31 31
- 0.135429 1 2 cbr 1000 ------- 2 1.0 2.0 31 31
r 0.135943 1 2 cbr 1000 ------- 2 1.0 2.0 22 22
+ 0.136571 1 2 cbr 1000 ------- 2 1.0 2.0 32 32
- 0.136571 1 2 cbr 1000 ------- 2 1.0 2.0 32 32
r 0.137086 1 2 cbr 1000 ------- 2 1.0 2.0 23 23
+ 0.137714 1 2 cbr 1000 ------- 2 1.0 2.0 33 33
- 0.137714 1 2 cbr 1000 ------- 2 1.0 2.0 33 33
r 0.138229 1 2 cbr 1000 ------- 2 1.0 2.0 24 24
+ 0.138857 1 2 cbr 1000 ------- 2 1.0 2.0 34 34
- 0.138857 1 2 cbr 1000 ------- 2 1.0 2.0 34 34
r 0.139371 1 2 cbr 1000 ------- 2 1.0 2.0 25 25
+ 0.14 1 2 cbr 1000 ------- 2 1.0 2.0 35 35
- 0.14 1 2 cbr 1000 ------- 2 1.0 2.0 35 35
r 0.140514 1 2 cbr 1000 ------- 2 1.0 2.0 26 26
+ 0.141143 1 2 cbr 1000 ------- 2 1.0 2.0 36 36
- 0.141143 1 2 cbr 1000 ------- 2 1.0 2.0 36 36
r 0.141657 1 2 cbr 1000 ------- 2 1.0 2.0 27 27
+ 0.142286 1 2 cbr 1000 ------- 2 1.0 2.0 37 37
- 0.142286 1 2 cbr 1000 ------- 2 1.0 2.0 37 37
r 0.1428 1 2 cbr 1000 ------- 2 1.0 2.0 28 28
+ 0.143429 1 2 cbr 1000 ------- 2 1.0 2.0 38 38
- 0.143429 1 2 cbr 1000 ------- 2 1.0 2.0 38 38
r 0.143943 1 2 cbr 1000 ------- 2 1.0 2.0 29 29
+ 0.144571 1 2 cbr 1000 ------- 2 1.0 2.0 39 39
- 0.144571 1 2 cbr 1000 ------- 2 1.0 2.0 39 39
r 0.145086 1 2 cbr 1000 ------- 2 1.0 2.0 30 30
+ 0.145714 1 2 cbr 1000 ------- 2 1.0 2.0 40 40
- 0.145714 1 2 cbr 1000 ------- 2 1.0 2.0 40 40
r 0.146229 1 2 cbr 1000 ------- 2 1.0 2.0 31 31
+ 0.146857 1 2 cbr 1000 ------- 2 1.0 2.0 41 41
- 0.146857 1 2 cbr 1000 ------- 2 1.0 2.0 41 41
r 0.147371 1 2 cbr 1000 ------- 2 1.0 2.0 32 32
+ 0.148 1 2 cbr 1000 ------- 2 1.0 2.0 42 42
- 0.148 1 2 cbr 1000 ------- 2 1.0 2.0 42 42
r 0.148514 1 2 cbr 1000 ------- 2 1.0 2.0 33 33
+ 0.149143 1 2 cbr 1000 ------- 2 1.0 2.0 43 43
- 0.149143 1 2 cbr 1000 ------- 2 1.0 2.0 43 43
r 0.149657 1 2 cbr 1000 ------- 2 1.0 2.0 34 34
+ 0.150286 1 2 cbr 1000 ------- 2 1.0 2.0 44 44
- 0.150286 1 2 cbr 1000 ------- 2 1.0 2.0 44 44
r 0.1508 1 2 cbr 1000 ------- 2 1.0 2.0 35 35
+ 0.151429 1 2 cbr 1000 ------- 2 1.0 2.0 45 45
- 0.151429 1 2 cbr 1000 ------- 2 1.0 2.0 45 45
r 0.151943 1 2 cbr 1000 ------- 2 1.0 2.0 36 36
+ 0.152571 1 2 cbr 1000 ------- 2 1.0 2.0 46 46
- 0.152571 1 2 cbr 1000 ------- 2 1.0 2.0 46 46
r 0.153086 1 2 cbr 1000 ------- 2 1.0 2.0 37 37
+ 0.153714 1 2 cbr 1000 ------- 2 1.0 2.0 47 47
- 0.153714 1 2 cbr 1000 ------- 2 1.0 2.0 47 47
r 0.154229 1 2 cbr 1000 ------- 2 1.0 2.0 38 38
+ 0.154857 1 2 cbr 1000 ------- 2 1.0 2.0 48 48
- 0.154857 1 2 cbr 1000 ------- 2 1.0 2.0 48 48
r 0.155371 1 2 cbr 1000 ------- 2 1.0 2.0 39 39
+ 0.156 1 2 cbr 1000 ------- 2 1.0 2.0 49 49
- 0.156 1 2 cbr 1000 ------- 2 1.0 2.0 49 49
r 0.156514 1 2 cbr 1000 ------- 2 1.0 2.0 40 40
+ 0.157143 1 2 cbr 1000 ------- 2 1.0 2.0 50 50
- 0.157143 1 2 cbr 1000 ------- 2 1.0 2.0 50 50
r 0.157657 1 2 cbr 1000 ------- 2 1.0 2.0 41 41
+ 0.158286 1 2 cbr 1000 ------- 2 1.0 2.0 51 51
- 0.158286 1 2 cbr 1000 ------- 2 1.0 2.0 51 51
r 0.1588 1 2 cbr 1000 ------- 2 1.0 2.0 42 42
+ 0.159429 1 2 cbr 1000 ------- 2 1.0 2.0 52 52
- 0.159429 1 2 cbr 1000 ------- 2 1.0 2.0 52 52
r 0.159943 1 2 cbr 1000 ------- 2 1.0 2.0 43 43
+ 0.160571 1 2 cbr 1000 ------- 2 1.0 2.0 53 53
- 0.160571 1 2 cbr 1000 ------- 2 1.0 2.0 53 53
r 0.161086 1 2 cbr 1000 ------- 2 1.0 2.0 44 44
+ 0.161714 1 2 cbr 1000 ------- 2 1.0 2.0 54 54
- 0.161714 1 2 cbr 1000 ------- 2 1.0 2.0 54 54
r 0.162229 1 2 cbr 1000 ------- 2 1.0 2.0 45 45
+ 0.162857 1 2 cbr 1000 ------- 2 1.0 2.0 55 55
- 0.162857 1 2 cbr 1000 ------- 2 1.0 2.0 55 55
r 0.163371 1 2 cbr 1000 ------- 2 1.0 2.0 46 46
+ 0.164 1 2 cbr 1000 ------- 2 1.0 2.0 56 56
- 0.164 1 2 cbr 1000 ------- 2 1.0 2.0 56 56
r 0.164514 1 2 cbr 1000 ------- 2 1.0 2.0 47 47
+ 0.165143 1 2 cbr 1000 ------- 2 1.0 2.0 57 57
- 0.165143 1 2 cbr 1000 ------- 2 1.0 2.0 57 57
r 0.165657 1 2 cbr 1000 ------- 2 1.0 2.0 48 48
+ 0.166286 1 2 cbr 1000 ------- 2 1.0 2.0 58 58
- 0.166286 1 2 cbr 1000 ------- 2 1.0 2.0 58 58
r 0.1668 1 2 cbr 1000 ------- 2 1.0 2.0 49 49
+ 0.167429 1 2 cbr 1000 ------- 2 1.0 2.0 59 59
- 0.167429 1 2 cbr 1000 ------- 2 1.0 2.0 59 59
r 0.167943 1 2 cbr 1000 ------- 2 1.0 2.0 50 50
+ 0.168571 1 2 cbr 1000 ------- 2 1.0 2.0 60 60
- 0.168571 1 2 cbr 1000 ------- 2 1.0 2.0 60 60
r 0.169086 1 2 cbr 1000 ------- 2 1.0 2.0 51 51
+ 0.169714 1 2 cbr 1000 ------- 2 1.0 2.0 61 61
- 0.169714 1 2 cbr 1000 ------- 2 1.0 2.0 61 61
r 0.170229 1 2 cbr 1000 ------- 2 1.0 2.0 52 52
+ 0.170857 1 2 cbr 1000 ------- 2 1.0 2.0 62 62
- 0.170857 1 2 cbr 1000 ------- 2 1.0 2.0 62 62
r 0.171371 1 2 cbr 1000 ------- 2 1.0 2.0 53 53
+ 0.172 1 2 cbr 1000 ------- 2 1.0 2.0 63 63
- 0.172 1 2 cbr 1000 ------- 2 1.0 2.0 63 63
r 0.172514 1 2 cbr 1000 ------- 2 1.0 2.0 54 54
+ 0.173143 1 2 cbr 1000 ------- 2 1.0 2.0 64 64
- 0.173143 1 2 cbr 1000 ------- 2 1.0 2.0 64 64
r 0.173657 1 2 cbr 1000 ------- 2 1.0 2.0 55 55
+ 0.174286 1 2 cbr 1000 ------- 2 1.0 2.0 65 65
- 0.174286 1 2 cbr 1000 ------- 2 1.0 2.0 65 65
r 0.1748 1 2 cbr 1000 ------- 2 1.0 2.0 56 56
+ 0.175429 1 2 cbr 1000 ------- 2 1.0 2.0 66 66
- 0.175429 1 2 cbr 1000 ------- 2 1.0 2.0 66 66
r 0.175943 1 2 cbr 1000 ------- 2 1.0 2.0 57 57
+ 0.176571 1 2 cbr 1000 ------- 2 1.0 2.0 67 67
- 0.176571 1 2 cbr 1000 ------- 2 1.0 2.0 67 67
r 0.177086 1 2 cbr 1000 ------- 2 1.0 2.0 58 58
+ 0.177714 1 2 cbr 1000 ------- 2 1.0 2.0 68 68
- 0.177714 1 2 cbr 1000 ------- 2 1.0 2.0 68 68
r 0.178229 1 2 cbr 1000 ------- 2 1.0 2.0 59 59
+ 0.178857 1 2 cbr 1000 ------- 2 1.0 2.0 69 69
- 0.178857 1 2 cbr 1000 ------- 2 1.0 2.0 69 69
r 0.179371 1 2 cbr 1000 ------- 2 1.0 2.0 60 60
+ 0.18 1 2 cbr 1000 ------- 2 1.0 2.0 70 70
- 0.18 1 2 cbr 1000 ------- 2 1.0 2.0 70 70
r 0.180514 1 2 cbr 1000 ------- 2 1.0 2.0 61 61
+ 0.181143 1 2 cbr 1000 ------- 2 1.0 2.0 71 71
- 0.181143 1 2 cbr 1000 ------- 2 1.0 2.0 71 71
r 0.181657 1 2 cbr 1000 ------- 2 1.0 2.0 62 62
+ 0.182286 1 2 cbr 1000 ------- 2 1.0 2.0 72 72
- 0.182286 1 2 cbr 1000 ------- 2 1.0 2.0 72 72
r 0.1828 1 2 cbr 1000 ------- 2 1.0 2.0 63 63
+ 0.183429 1 2 cbr 1000 ------- 2 1.0 2.0 73 73
- 0.183429 1 2 cbr 1000 ------- 2 1.0 2.0 73 73
r 0.183943 1 2 cbr 1000 ------- 2 1.0 2.0 64 64
+ 0.184571 1 2 cbr 1000 ------- 2 1.0 2.0 74 74
- 0.184571 1 2 cbr 1000 ------- 2 1.0 2.0 74 74
r 0.185086 1 2 cbr 1000 ------- 2 1.0 2.0 65 65
+ 0.185714 1 2 cbr 1000 ------- 2 1.0 2.0 75 75
- 0.185714 1 2 cbr 1000 ------- 2 1.0 2.0 75 75
r 0.186229 1 2 cbr 1000 ------- 2 1.0 2.0 66 66
+ 0.186857 1 2 cbr 1000 ------- 2 1.0 2.0 76 76
- 0.186857 1 2 cbr 1000 ------- 2 1.0 2.0 76 76
r 0.187371 1 2 cbr 1000 ------- 2 1.0 2.0 67 67
+ 0.188 1 2 cbr 1000 ------- 2 1.0 2.0 77 77
- 0.188 1 2 cbr 1000 ------- 2 1.0 2.0 77 77
r 0.188514 1 2 cbr 1000 ------- 2 1.0 2.0 68 68
+ 0.189143 1 2 cbr 1000 ------- 2 1.0 2.0 78 78
- 0.189143 1 2 cbr 1000 ------- 2 1.0 2.0 78 78
r 0.189657 1 2 cbr 1000 ------- 2 1.0 2.0 69 69
+ 0.190286 1 2 cbr 1000 ------- 2 1.0 2.0 79 79
- 0.190286 1 2 cbr 1000 ------- 2 1.0 2.0 79 79
r 0.1908 1 2 cbr 1000 ------- 2 1.0 2.0 70 70
+ 0.191429 1 2 cbr 1000 ------- 2 1.0 2.0 80 80
- 0.191429 1 2 cbr 1000 ------- 2 1.0 2.0 80 80
r 0.191943 1 2 cbr 1000 ------- 2 1.0 2.0 71 71
+ 0.192571 1 2 cbr 1000 ------- 2 1.0 2.0 81 81
- 0.192571 1 2 cbr 1000 ------- 2 1.0 2.0 81 81
r 0.193086 1 2 cbr 1000 ------- 2 1.0 2.0 72 72
+ 0.193714 1 2 cbr 1000 ------- 2 1.0 2.0 82 82
- 0.193714 1 2 cbr 1000 ------- 2 1.0 2.0 82 82
r 0.194229 1 2 cbr 1000 ------- 2 1.0 2.0 73 73
+ 0.194857 1 2 cbr 1000 ------- 2 1.0 2.0 83 83
- 0.194857 1 2 cbr 1000 ------- 2 1.0 2.0 83 83
r 0.195371 1 2 cbr 1000 ------- 2 1.0 2.0 74 74
+ 0.196 1 2 cbr 1000 ------- 2 1.0 2.0 84 84
- 0.196 1 2 cbr 1000 ------- 2 1.0 2.0 84 84
r 0.196514 1 2 cbr 1000 ------- 2 1.0 2.0 75 75
+ 0.197143 1 2 cbr 1000 ------- 2 1.0 2.0 85 85
- 0.197143 1 2 cbr 1000 ------- 2 1.0 2.0 85 85
r 0.197657 1 2 cbr 1000 ------- 2 1.0 2.0 76 76
+ 0.198286 1 2 cbr 1000 ------- 2 1.0 2.0 86 86
- 0.198286 1 2 cbr 1000 ------- 2 1.0 2.0 86 86
r 0.1988 1 2 cbr 1000 ------- 2 1.0 2.0 77 77
+ 0.199429 1 2 cbr 1000 ------- 2 1.0 2.0 87 87
- 0.199429 1 2 cbr 1000 ------- 2 1.0 2.0 87 87
r 0.199943 1 2 cbr 1000 ------- 2 1.0 2.0 78 78
+ 0.2 0 1 tcp 1000 ------- 1 0.0 3.0 0 88
- 0.2 0 1 tcp 1000 ------- 1 0.0 3.0 0 88
+ 0.200571 1 2 cbr 1000 ------- 2 1.0 2.0 88 89
- 0.200571 1 2 cbr 1000 ------- 2 1.0 2.0 88 89
r 0.201086 1 2 cbr 1000 ------- 2 1.0 2.0 79 79
+ 0.201714 1 2 cbr 1000 ------- 2 1.0 2.0 89 90
- 0.201714 1 2 cbr 1000 ------- 2 1.0 2.0 89 90
r 0.202229 1 2 cbr 1000 ------- 2 1.0 2.0 80 80
+ 0.202857 1 2 cbr 1000 ------- 2 1.0 2.0 90 91
- 0.202857 1 2 cbr 1000 ------- 2 1.0 2.0 90 91
r 0.203371 1 2 cbr 1000 ------- 2 1.0 2.0 81 81
+ 0.204 1 2 cbr 1000 ------- 2 1.0 2.0 91 92
- 0.204 1 2 cbr 1000 ------- 2 1.0 2.0 91 92
r 0.204514 1 2 cbr 1000 ------- 2 1.0 2.0 82 82
+ 0.205143 1 2 cbr 1000 ------- 2 1.0 2.0 92 93
- 0.205143 1 2 cbr 1000 ------- 2 1.0 2.0 92 93
r 0.205657 1 2 cbr 1000 ------- 2 1.0 2.0 83 83
+ 0.206286 1 2 cbr 1000 ------- 2 1.0 2.0 93 94
- 0.206286 1 2 cbr 1000 ------- 2 1.0 2.0 93 94
r 0.2068 1 2 cbr 1000 ------- 2 1.0 2.0 84 84
+ 0.207429 1 2 cbr 1000 ------- 2 1.0 2.0 94 95
- 0.207429 1 2 cbr 1000 ------- 2 1.0 2.0 94 95
r 0.207943 1 2 cbr 1000 ------- 2 1.0 2.0 85 85
+ 0.208571 1 2 cbr 1000 ------- 2 1.0 2.0 95 96
- 0.208571 1 2 cbr 1000 ------- 2 1.0 2.0 95 96
r 0.209086 1 2 cbr 1000 ------- 2 1.0 2.0 86 86
+ 0.209714 1 2 cbr 1000 ------- 2 1.0 2.0 96 97
- 0.209714 1 2 cbr 1000 ------- 2 1.0 2.0 96 97
r 0.210229 1 2 cbr 1000 ------- 2 1.0 2.0 87 87
r 0.2108 0 1 tcp 1000 ------- 1 0.0 3.0 0 88
+ 0.2108 1 2 tcp 1000 ------- 1 0.0 3.0 0 88
- 0.2108 1 2 tcp 1000 ------- 1 0.0 3.0 0 88
+ 0.210857 1 2 cbr 1000 ------- 2 1.0 2.0 97 98
r 0.211371 1 2 cbr 1000 ------- 2 1.0 2.0 88 89
- 0.2116 1 2 cbr 1000 ------- 2 1.0 2.0 97 98
+ 0.212 1 2 cbr 1000 ------- 2 1.0 2.0 98 99
- 0.2124 1 2 cbr 1000 ------- 2 1.0 2.0 98 99
r 0.212514 1 2 cbr 1000 ------- 2 1.0 2.0 89 90
+ 0.213143 1 2 cbr 1000 ------- 2 1.0 2.0 99 100
- 0.2132 1 2 cbr 1000 ------- 2 1.0 2.0 99 100
r 0.213657 1 2 cbr 1000 ------- 2 1.0 2.0 90 91
+ 0.214286 1 2 cbr 1000 ------- 2 1.0 2.0 100 101
- 0.214286 1 2 cbr 1000 ------- 2 1.0 2.0 100 101
r 0.2148 1 2 cbr 1000 ------- 2 1.0 2.0 91 92
+ 0.215429 1 2 cbr 1000 ------- 2 1.0 2.0 101 102
- 0.215429 1 2 cbr 1000 ------- 2 1.0 2.0 101 102
r 0.215943 1 2 cbr 1000 ------- 2 1.0 2.0 92 93
+ 0.216571 1 2 cbr 1000 ------- 2 1.0 2.0 102 103
- 0.216571 1 2 cbr 1000 ------- 2 1.0 2.0 102 103
r 0.217086 1 2 cbr 1000 ------- 2 1.0 2.0 93 94
+ 0.217714 1 2 cbr 1000 ------- 2 1.0 2.0 103 104
- 0.217714 1 2 cbr 1000 ------- 2 1.0 2.0 103 104
r 0.218229 1 2 cbr 1000 ------- 2 1.0 2.0 94 95
+ 0.218857 1 2 cbr 1000 ------- 2 1.0 2.0 104 105
- 0.218857 1 2 cbr 1000 ------- 2 1.0 2.0 104 105
r 0.219371 1 2 cbr 1000 ------- 2 1.0 2.0 95 96
+ 0.22 1 2 cbr 1000 ------- 2 1.0 2.0 105 106
- 0.22 1 2 cbr 1000 ------- 2 1.0 2.0 105 106
r 0.220514 1 2 cbr 1000 ------- 2 1.0 2.0 96 97
+ 0.221143 1 2 cbr 1000 ------- 2 1.0 2.0 106 107
- 0.221143 1 2 cbr 1000 ------- 2 1.0 2.0 106 107
r 0.2216 1 2 tcp 1000 ------- 1 0.0 3.0 0 88
+ 0.2216 2 3 tcp 1000 ------- 1 0.0 3.0 0 88
- 0.2216 2 3 tcp 1000 ------- 1 0.0 3.0 0 88
+ 0.222286 1 2 cbr 1000 ------- 2 1.0 2.0 107 108
- 0.222286 1 2 cbr 1000 ------- 2 1.0 2.0 107 108
r 0.2224 1 2 cbr 1000 ------- 2 1.0 2.0 97 98
r 0.2232 1 2 cbr 1000 ------- 2 1.0 2.0 98 99
+ 0.223429 1 2 cbr 1000 ------- 2 1.0 2.0 108 109
- 0.223429 1 2 cbr 1000 ------- 2 1.0 2.0 108 109
r 0.224 1 2 cbr 1000 ------- 2 1.0 2.0 99 100
+ 0.224571 1 2 cbr 1000 ------- 2 1.0 2.0 109 110
- 0.224571 1 2 cbr 1000 ------- 2 1.0 2.0 109 110
r 0.225086 1 2 cbr 1000 ------- 2 1.0 2.0 100 101
+ 0.225714 1 2 cbr 1000 ------- 2 1.0 2.0 110 111
- 0.225714 1 2 cbr 1000 ------- 2 1.0 2.0 110 111
r 0.226229 1 2 cbr 1000 ------- 2 1.0 2.0 101 102
+ 0.226857 1 2 cbr 1000 ------- 2 1.0 2.0 111 112
- 0.226857 1 2 cbr 1000 ------- 2 1.0 2.0 111 112
r 0.227371 1 2 cbr 1000 ------- 2 1.0 2.0 102 103
+ 0.228 1 2 cbr 1000 ------- 2 1.0 2.0 112 113
- 0.228 1 2 cbr 1000 ------- 2 1.0 2.0 112 113
r 0.228514 1 2 cbr 1000 ------- 2 1.0 2.0 103 104
+ 0.229143 1 2 cbr 1000 ------- 2 1.0 2.0 113 114
- 0.229143 1 2 cbr 1000 ------- 2 1.0 2.0 113 114
r 0.229657 1 2 cbr 1000 ------- 2 1.0 2.0 104 105
+ 0.230286 1 2 cbr 1000 ------- 2 1.0 2.0 114 115
- 0.230286 1 2 cbr 1000 ------- 2 1.0 2.0 114 115
r 0.2308 1 2 cbr 1000 ------- 2 1.0 2.0 105 106
+ 0.231429 1 2 cbr 1000 ------- 2 1.0 2.0 115 116
- 0.231429 1 2 cbr 1000 ------- 2 1.0 2.0 115 116
r 0.231943 1 2 cbr 1000 ------- 2 1.0 2.0 106 107
r 0.2324 2 3 tcp 1000 ------- 1 0.0 3.0 0 88
+ 0.2324 3 2 ack 40 ------- 1 3.0 0.0 0 117
- 0.2324 3 2 ack 40 ------- 1 3.0 0.0 0 117
+ 0.232571 1 2 cbr 1000 ------- 2 1.0 2.0 116 118
- 0.232571 1 2 cbr 1000 ------- 2 1.0 2.0 116 118
r 0.233086 1 2 cbr 1000 ------- 2 1.0 2.0 107 108
+ 0.233714 1 2 cbr 1000 ------- 2 1.0 2.0 117 119
- 0.233714 1 2 cbr 1000 ------- 2 1.0 2.0 117 119
r 0.234229 1 2 cbr 1000 ------- 2 1.0 2.0 108 109
+ 0.234857 1 2 cbr 1000 ------- 2 1.0 2.0 118 120
- 0.234857 1 2 cbr 1000 ------- 2 1.0 2.0 118 120
r 0.235371 1 2 cbr 1000 ------- 2 1.0 2.0 109 110
+ 0.236 1 2 cbr 1000 ------- 2 1.0 2.0 119 121
- 0.236 1 2 cbr 1000 ------- 2 1.0 2.0 119 121
r 0.236514 1 2 cbr 1000 ------- 2 1.0 2.0 110 111
+ 0.237143 1 2 cbr 1000 ------- 2 1.0 2.0 120 122
- 0.237143 1 2 cbr 1000 ------- 2 1.0 2.0 120 122
r 0.237657 1 2 cbr 1000 ------- 2 1.0 2.0 111 112
+ 0.238286 1 2 cbr 1000 ------- 2 1.0 2.0 121 123
- 0.238286 1 2 cbr 1000 ------- 2 1.0 2.0 121 123
r 0.2388 1 2 cbr 1000 ------- 2 1.0 2.0 112 113
+ 0.239429 1 2 cbr 1000 ------- 2 1.0 2.0 122 124
- 0.239429 1 2 cbr 1000 ------- 2 1.0 2.0 122 124
r 0.239943 1 2 cbr 1000 ------- 2 1.0 2.0 113 114
+ 0.240571 1 2 cbr 1000 ------- 2 1.0 2.0 123 125
- 0.240571 1 2 cbr 1000 ------- 2 1.0 2.0 123 125
r 0.241086 1 2 cbr 1000 ------- 2 1.0 2.0 114 115
+ 0.241714 1 2 cbr 1000 ------- 2 1.0 2.0 124 126
- 0.241714 1 2 cbr 1000 ------- 2 1.0 2.0 124 126
r 0.242229 1 2 cbr 1000 ------- 2 1.0 2.0 115 116
r 0.242432 3 2 ack 40 ------- 1 3.0 0.0 0 117
+ 0.242432 2 1 ack 40 ------- 1 3.0 0.0 0 117
- 0.242432 2 1 ack 40 ------- 1 3.0 0.0 0 117
+ 0.242857 1 2 cbr 1000 ------- 2 1.0 2.0 125 127
- 0.242857 1 2 cbr 1000 ------- 2 1.0 2.0 125 127
r 0.243371 1 2 cbr 1000 ------- 2 1.0 2.0 116 118
+ 0.244 1 2 cbr 1000 ------- 2 1.0 2.0 126 128
- 0.244 1 2 cbr 1000 ------- 2 1.0 2.0 126 128
r 0.244514 1 2 cbr 1000 ------- 2 1.0 2.0 117 119
+ 0.245143 1 2 cbr 1000 ------- 2 1.0 2.0 127 129
- 0.245143 1 2 cbr 1000 ------- 2 1.0 2.0 127 129
r 0.245657 1 2 cbr 1000 ------- 2 1.0 2.0 118 120
+ 0.246286 1 2 cbr 1000 ------- 2 1.0 2.0 128 130
- 0.246286 1 2 cbr 1000 ------- 2 1.0 2.0 128 130
r 0.2468 1 2 cbr 1000 ------- 2 1.0 2.0 119 121
+ 0.247429 1 2 cbr 1000 ------- 2 1.0 2.0 129 131
- 0.247429 1 2 cbr 1000 ------- 2 1.0 2.0 129 131
r 0.247943 1 2 cbr 1000 ------- 2 1.0 2.0 120 122
+ 0.248571 1 2 cbr 1000 ------- 2 1.0 2.0 130 132
- 0.248571 1 2 cbr 1000 ------- 2 1.0 2.0 130 132
r 0.249086 1 2 cbr 1000 ------- 2 1.0 2.0 121 123
+ 0.249714 1 2 cbr 1000 ------- 2 1.0 2.0 131 133
- 0.249714 1 2 cbr 1000 ------- 2 1.0 2.0 131 133
r 0.250229 1 2 cbr 1000 ------- 2 1.0 2.0 122 124
+ 0.250857 1 2 cbr 1000 ------- 2 1.0 2.0 132 134
- 0.250857 1 2 cbr 1000 ------- 2 1.0 2.0 132 134
r 0.251371 1 2 cbr 1000 ------- 2 1.0 2.0 123 125
+ 0.252 1 2 cbr 1000 ------- 2 1.0 2.0 133 135
- 0.252 1 2 cbr 1000 ------- 2 1.0 2.0 133 135
r 0.252464 2 1 ack 40 ------- 1 3.0 0.0 0 117
+ 0.252464 1 0 ack 40 ------- 1 3.0 0.0 0 117
- 0.252464 1 0 ack 40 ------- 1 3.0 0.0 0 117
r 0.252514 1 2 cbr 1000 ------- 2 1.0 2.0 124 126
+ 0.253143 1 2 cbr 1000 ------- 2 1.0 2.0 134 136
- 0.253143 1 2 cbr 1000 ------- 2 1.0 2.0 134 136
r 0.253657 1 2 cbr 1000 ------- 2 1.0 2.0 125 127
+ 0.254286 1 2 cbr 1000 ------- 2 1.0 2.0 135 137
- 0.254286 1 2 cbr 1000 ------- 2 1.0 2.0 135 137
r 0.2548 1 2 cbr 1000 ------- 2 1.0 2.0 126 128
+ 0.255429 1 2 cbr 1000 ------- 2 1.0 2.0 136 138
- 0.255429 1 2 cbr 1000 ------- 2 1.0 2.0 136 138
r 0.255943 1 2 cbr 1000 ------- 2 1.0 2.0 127 129
+ 0.256571 1 2 cbr 1000 ------- 2 1.0 2.0 137 139
- 0.256571 1 2 cbr 1000 ------- 2 1.0 2.0 137 139
r 0.257086 1 2 cbr 1000 ------- 2 1.0 2.0 128 130
+ 0.257714 1 2 cbr 1000 ------- 2 1.0 2.0 138 140
- 0.257714 1 2 cbr 1000 ------- 2 1.0 2.0 138 140
r 0.258229 1 2 cbr 1000 ------- 2 1.0 2.0 129 131
+ 0.258857 1 2 cbr 1000 ------- 2 1.0 2.0 139 141
- 0.258857 1 2 cbr 1000 ------- 2 1.0 2.0 139 141
r 0.259371 1 2 cbr 1000 ------- 2 1.0 2.0 130 132
+ 0.26 1 2 cbr 1000 ------- 2 1.0 2.0 140 142
- 0.26 1 2 cbr 1000 ------- 2 1.0 2.0 140 142
r 0.260514 1 2 cbr 1000 ------- 2 1.0 2.0 131 133
+ 0.261143 1 2 cbr 1000 ------- 2 1.0 2.0 141 143
- 0.261143 1 2 cbr 1000 ------- 2 1.0 2.0 141 143
r 0.261657 1 2 cbr 1000 ------- 2 1.0 2.0 132 134
+ 0.262286 1 2 cbr 1000 ------- 2 1.0 2.0 142 144
- 0.262286 1 2 cbr 1000 ------- 2 1.0 2.0 142 144
r 0.262496 1 0 ack 40 ------- 1 3.0 0.0 0 117
+ 0.262496 0 1 tcp 1000 ------- 1 0.0 3.0 1 145
- 0.262496 0 1 tcp 1000 ------- 1 0.0 3.0 1 145
r 0.2628 1 2 cbr 1000 ------- 2 1.0 2.0 133 135
+ 0.263429 1 2 cbr 1000 ------- 2 1.0 2.0 143 146
- 0.263429 1 2 cbr 1000 ------- 2 1.0 2.0 143 146
r 0.263943 1 2 cbr 1000 ------- 2 1.0 2.0 134 136
+ 0.264571 1 2 cbr 1000 ------- 2 1.0 2.0 144 147
- 0.264571 1 2 cbr 1000 ------- 2 1.0 2.0 144 147
r 0.265086 1 2 cbr 1000 ------- 2 1.0 2.0 135 137
+ 0.265714 1 2 cbr 1000 ------- 2 1.0 2.0 145 148
- 0.265714 1 2 cbr 1000 ------- 2 1.0 2.0 145 148
r 0.266229 1 2 cbr 1000 ------- 2 1.0 2.0 136 138
+ 0.266857 1 2 cbr 1000 ------- 2 1.0 2.0 146 149
- 0.266857 1 2 cbr 1000 ------- 2 1.0 2.0 146 149
r 0.267371 1 2 cbr 1000 ------- 2 1.0 2.0 137 139
+ 0.268 1 2 cbr 1000 ------- 2 1.0 2.0 147 150
- 0.268 1 2 cbr 1000 ------- 2 1.0 2.0 147 150
r 0.268514 1 2 cbr 1000 ------- 2 1.0 2.0 138 140
+ 0.269143 1 2 cbr 1000 ------- 2 1.0 2.0 148 151
- 0.269143 1 2 cbr 1000 ------- 2 1.0 2.0 148 151
r 0.269657 1 2 cbr 1000 ------- 2 1.0 2.0 139 141
+ 0.270286 1 2 cbr 1000 ------- 2 1.0 2.0 149 152
- 0.270286 1 2 cbr 1000 ------- 2 1.0 2.0 149 152
r 0.2708 1 2 cbr 1000 ------- 2 1.0 2.0 140 142
+ 0.271429 1 2 cbr 1000 ------- 2 1.0 2.0 150 153
- 0.271429 1 2 cbr 1000 ------- 2 1.0 2.0 150 153
r 0.271943 1 2 cbr 1000 ------- 2 1.0 2.0 141 143
+ 0.272571 1 2 cbr 1000 ------- 2 1.0 2.0 151 154
- 0.272571 1 2 cbr 1000 ------- 2 1.0 2.0 151 154
r 0.273086 1 2 cbr 1000 ------- 2 1.0 2.0 142 144
r 0.273296 0 1 tcp 1000 ------- 1 0.0 3.0 1 145
+ 0.273296 1 2 tcp 1000 ------- 1 0.0 3.0 1 145
- 0.273371 1 2 tcp 1000 ------- 1 0.0 3.0 1 145
+ 0.273714 1 2 cbr 1000 ------- 2 1.0 2.0 152 155
- 0.274171 1 2 cbr 1000 ------- 2 1.0 2.0 152 155
r 0.274229 1 2 cbr 1000 ------- 2 1.0 2.0 143 146
+ 0.274857 1 2 cbr 1000 ------- 2 1.0 2.0 153 156
- 0.274971 1 2 cbr 1000 ------- 2 1.0 2.0 153 156
r 0.275371 1 2 cbr 1000 ------- 2 1.0 2.0 144 147
+ 0.276 1 2 cbr 1000 ------- 2 1.0 2.0 154 157
- 0.276 1 2 cbr 1000 ------- 2 1.0 2.0 154 157
r 0.276514 1 2 cbr 1000 ------- 2 1.0 2.0 145 148
+ 0.277143 1 2 cbr 1000 ------- 2 1.0 2.0 155 158
- 0.277143 1 2 cbr 1000 ------- 2 1.0 2.0 155 158
r 0.277657 1 2 cbr 1000 ------- 2 1.0 2.0 146 149
+ 0.278286 1 2 cbr 1000 ------- 2 1.0 2.0 156 159
- 0.278286 1 2 cbr 1000 ------- 2 1.0 2.0 156 159
r 0.2788 1 2 cbr 1000 ------- 2 1.0 2.0 147 150
+ 0.279429 1 2 cbr 1000 ------- 2 1.0 2.0 157 160
- 0.279429 1 2 cbr 1000 ------- 2 1.0 2.0 157 160
r 0.279943 1 2 cbr 1000 ------- 2 1.0 2.0 148 151
+ 0.280571 1 2 cbr 1000 ------- 2 1.0 2.0 158 161
- 0.280571 1 2 cbr 1000 ------- 2 1.0 2.0 158 161
r 0.281086 1 2 cbr 1000 ------- 2 1.0 2.0 149 152
+ 0.281714 1 2 cbr 1000 ------- 2 1.0 2.0 159 162
- 0.281714 1 2 cbr 1000 ------- 2 1.0 2.0 159 162
r 0.282229 1 2 cbr 1000 ------- 2 1.0 2.0 150 153
+ 0.282857 1 2 cbr 1000 ------- 2 1.0 2.0 160 163
- 0.282857 1 2 cbr 1000 ------- 2 1.0 2.0 160 163
r 0.283371 1 2 cbr 1000 ------- 2 1.0 2.0 151 154
+ 0.284 1 2 cbr 1000 ------- 2 1.0 2.0 161 164
- 0.284 1 2 cbr 1000 ------- 2 1.0 2.0 161 164
r 0.284171 1 2 tcp 1000 ------- 1 0.0 3.0 1 145
+ 0.284171 2 3 tcp 1000 ------- 1 0.0 3.0 1 145
- 0.284171 2 3 tcp 1000 ------- 1 0.0 3.0 1 145
r 0.284971 1 2 cbr 1000 ------- 2 1.0 2.0 152 155
+ 0.285143 1 2 cbr 1000 ------- 2 1.0 2.0 162 165
- 0.285143 1 2 cbr 1000 ------- 2 1.0 2.0 162 165
r 0.285771 1 2 cbr 1000 ------- 2 1.0 2.0 153 156
+ 0.286286 1 2 cbr 1000 ------- 2 1.0 2.0 163 166
- 0.286286 1 2 cbr 1000 ------- 2 1.0 2.0 163 166
r 0.2868 1 2 cbr 1000 ------- 2 1.0 2.0 154 157
+ 0.287429 1 2 cbr 1000 ------- 2 1.0 2.0 164 167
- 0.287429 1 2 cbr 1000 ------- 2 1.0 2.0 164 167
r 0.287943 1 2 cbr 1000 ------- 2 1.0 2.0 155 158
+ 0.288571 1 2 cbr 1000 ------- 2 1.0 2.0 165 168
- 0.288571 1 2 cbr 1000 ------- 2 1.0 2.0 165 168
r 0.289086 1 2 cbr 1000 ------- 2 1.0 2.0 156 159
+ 0.289714 1 2 cbr 1000 ------- 2 1.0 2.0 166 169
- 0.289714 1 2 cbr 1000 ------- 2 1.0 2.0 166 169
r 0.290229 1 2 cbr 1000 ------- 2 1.0 2.0 157 160
+ 0.290857 1 2 cbr 1000 ------- 2 1.0 2.0 167 170
- 0.290857 1 2 cbr 1000 ------- 2 1.0 2.0 167 170
r 0.291371 1 2 cbr 1000 ------- 2 1.0 2.0 158 161
+ 0.292 1 2 cbr 1000 ------- 2 1.0 2.0 168 171
- 0.292 1 2 cbr 1000 ------- 2 1.0 2.0 168 171
r 0.292514 1 2 cbr 1000 ------- 2 1.0 2.0 159 162
+ 0.293143 1 2 cbr 1000 ------- 2 1.0 2.0 169 172
- 0.293143 1 2 cbr 1000 ------- 2 1.0 2.0 169 172
r 0.293657 1 2 cbr 1000 ------- 2 1.0 2.0 160 163
+ 0.294286 1 2 cbr 1000 ------- 2 1.0 2.0 170 173
- 0.294286 1 2 cbr 1000 ------- 2 1.0 2.0 170 173
r 0.2948 1 2 cbr 1000 ------- 2 1.0 2.0 161 164
r 0.294971 2 3 tcp 1000 ------- 1 0.0 3.0 1 145
+ 0.294971 3 2 ack 40 ------- 1 3.0 0.0 1 174
- 0.294971 3 2 ack 40 ------- 1 3.0 0.0 1 174
+ 0.295429 1 2 cbr 1000 ------- 2 1.0 2.0 171 175
- 0.295429 1 2 cbr 1000 ------- 2 1.0 2.0 171 175
r 0.295943 1 2 cbr 1000 ------- 2 1.0 2.0 162 165
+ 0.296571 1 2 cbr 1000 ------- 2 1.0 2.0 172 176
- 0.296571 1 2 cbr 1000 ------- 2 1.0 2.0 172 176
r 0.297086 1 2 cbr 1000 ------- 2 1.0 2.0 163 166
+ 0.297714 1 2 cbr 1000 ------- 2 1.0 2.0 173 177
- 0.297714 1 2 cbr 1000 ------- 2 1.0 2.0 173 177
r 0.298229 1 2 cbr 1000 ------- 2 1.0 2.0 164 167
+ 0.298857 1 2 cbr 1000 ------- 2 1.0 2.0 174 178
- 0.298857 1 2 cbr 1000 ------- 2 1.0 2.0 174 178
r 0.299371 1 2 cbr 1000 ------- 2 1.0 2.0 165 168
+ 0.3 1 2 cbr 1000 ------- 2 1.0 2.0 175 179
- 0.3 1 2 cbr 1000 ------- 2 1.0 2.0 175 179
r 0.300514 1 2 cbr 1000 ------- 2 1.0 2.0 166 169
+ 0.301143 1 2 cbr 1000 ------- 2 1.0 2.0 176 180
- 0.301143 1 2 cbr 1000 ------- 2 1.0 2.0 176 180
r 0.301657 1 2 cbr 1000 ------- 2 1.0 2.0 167 170
+ 0.302286 1 2 cbr 1000 ------- 2 1.0 2.0 177 181
- 0.302286 1 2 cbr 1000 ------- 2 1.0 2.0 177 181
r 0.3028 1 2 cbr 1000 ------- 2 1.0 2.0 168 171
+ 0.303429 1 2 cbr 1000 ------- 2 1.0 2.0 178 182
- 0.303429 1 2 cbr 1000 ------- 2 1.0 2.0 178 182
r 0.303943 1 2 cbr 1000 ------- 2 1.0 2.0 169 172
+ 0.304571 1 2 cbr 1000 ------- 2 1.0 2.0 179 183
- 0.304571 1 2 cbr 1000 ------- 2 1.0 2.0 179 183
r 0.305003 3 2 ack 40 ------- 1 3.0 0.0 1 174
+ 0.305003 2 1 ack 40 ------- 1 3.0 0.0 1 174
- 0.305003 2 1 ack 40 ------- 1 3.0 0.0 1 174
r 0.305086 1 2 cbr 1000 ------- 2 1.0 2.0 170 173
+ 0.305714 1 2 cbr 1000 ------- 2 1.0 2.0 180 184
- 0.305714 1 2 cbr 1000 ------- 2 1.0 2.0 180 184
r 0.306229 1 2 cbr 1000 ------- 2 1.0 2.0 171 175
+ 0.306857 1 2 cbr 1000 ------- 2 1.0 2.0 181 185
- 0.306857 1 2 cbr 1000 ------- 2 1.0 2.0 181 185
r 0.307371 1 2 cbr 1000 ------- 2 1.0 2.0 172 176
+ 0.308 1 2 cbr 1000 ------- 2 1.0 2.0 182 186
- 0.308 1 2 cbr 1000 ------- 2 1.0 2.0 182 186
r 0.308514 1 2 cbr 1000 ------- 2 1.0 2.0 173 177
+ 0.309143 1 2 cbr 1000 ------- 2 1.0 2.0 183 187
- 0.309143 1 2 cbr 1000 ------- 2 1.0 2.0 183 187
r 0.309657 1 2 cbr 1000 ------- 2 1.0 2.0 174 178
+ 0.310286 1 2 cbr 1000 ------- 2 1.0 2.0 184 188
- 0.310286 1 2 cbr 1000 ------- 2 1.0 2.0 184 188
r 0.3108 1 2 cbr 1000 ------- 2 1.0 2.0 175 179
+ 0.311429 1 2 cbr 1000 ------- 2 1.0 2.0 185 189
- 0.311429 1 2 cbr 1000 ------- 2 1.0 2.0 185 189
r 0.311943 1 2 cbr 1000 ------- 2 1.0 2.0 176 180
+ 0.312571 1 2 cbr 1000 ------- 2 1.0 2.0 186 190
- 0.312571 1 2 cbr 1000 ------- 2 1.0 2.0 186 190
r 0.313086 1 2 cbr 1000 ------- 2 1.0 2.0 177 181
+ 0.313714 1 2 cbr 1000 ------- 2 1.0 2.0 187 191
- 0.313714 1 2 cbr 1000 ------- 2 1.0 2.0 187 191
r 0.314229 1 2 cbr 1000 ------- 2 1.0 2.0 178 182
+ 0.314857 1 2 cbr 1000 ------- 2 1.0 2.0 188 192
- 0.314857 1 2 cbr 1000 ------- 2 1.0 2.0 188 192
r 0.315035 2 1 ack 40 ------- 1 3.0 0.0 1 174
+ 0.315035 1 0 ack 40 ------- 1 3.0 0.0 1 174
- 0.315035 1 0 ack 40 ------- 1 3.0 0.0 1 174
r 0.315371 1 2 cbr 1000 ------- 2 1.0 2.0 179 183
+ 0.316 1 2 cbr 1000 ------- 2 1.0 2.0 189 193
- 0.316 1 2 cbr 1000 ------- 2 1.0 2.0 189 193
r 0.316514 1 2 cbr 1000 ------- 2 1.0 2.0 180 184
+ 0.317143 1 2 cbr 1000 ------- 2 1.0 2.0 190 194
- 0.317143 1 2 cbr 1000 ------- 2 1.0 2.0 190 194
r 0.317657 1 2 cbr 1000 ------- 2 1.0 2.0 181 185
+ 0.318286 1 2 cbr 1000 ------- 2 1.0 2.0 191 195
- 0.318286 1 2 cbr 1000 ------- 2 1.0 2.0 191 195
r 0.3188 1 2 cbr 1000 ------- 2 1.0 2.0 182 186
+ 0.319429 1 2 cbr 1000 ------- 2 1.0 2.0 192 196
- 0.319429 1 2 cbr 1000 ------- 2 1.0 2.0 192 196
r 0.319943 1 2 cbr 1000 ------- 2 1.0 2.0 183 187
+ 0.320571 1 2 cbr 1000 ------- 2 1.0 2.0 193 197
- 0.320571 1 2 cbr 1000 ------- 2 1.0 2.0 193 197
r 0.321086 1 2 cbr 1000 ------- 2 1.0 2.0 184 188
+ 0.321714 1 2 cbr 1000 ------- 2 1.0 2.0 194 198
- 0.321714 1 2 cbr 1000 ------- 2 1.0 2.0 194 198
r 0.322229 1 2 cbr 1000 ------- 2 1.0 2.0 185 189
+ 0.322857 1 2 cbr 1000 ------- 2 1.0 2.0 195 199
- 0.322857 1 2 cbr 1000 ------- 2 1.0 2.0 195 199
r 0.323371 1 2 cbr 1000 ------- 2 1.0 2.0 186 190
+ 0.324 1 2 cbr 1000 ------- 2 1.0 2.0 196 200
- 0.324 1 2 cbr 1000 ------- 2 1.0 2.0 196 200
r 0.324514 1 2 cbr 1000 ------- 2 1.0 2.0 187 191
r 0.325067 1 0 ack 40 ------- 1 3.0 0.0 1 174
+ 0.325067 0 1 tcp 1000 ------- 1 0.0 3.0 2 201
- 0.325067 0 1 tcp 1000 ------- 1 0.0 3.0 2 201
+ 0.325067 0 1 tcp 1000 ------- 1 0.0 3.0 3 202