+ 0.1 1 2 cbr 1000 ------- 2 1.0 2.0 0 0
- 0.1 1 2 cbr 1000 ------- 2 1.0 2.0 0 0
+ 0.102 1 2 cbr 1000 ------- 2 1.0 2.0 1 1
- 0.102 1 2 cbr 1000 ------- 2 1.0 2.0 1 1
+ 0.104 1 2 cbr 1000 ------- 2 1.0 2.0 2 2
- 0.104 1 2 cbr 1000 ------- 2 1.0 2.0 2 2
+ 0.106 1 2 cbr 1000 ------- 2 1.0 2.0 3 3
- 0.106 1 2 cbr 1000 ------- 2 1.0 2.0 3 3
+ 0.108 1 2 cbr 1000 ------- 2 1.0 2.0 4 4
- 0.108 1 2 cbr 1000 ------- 2 1.0 2.0 4 4
+ 0.11 1 2 cbr 1000 ------- 2 1.0 2.0 5 5
- 0.11 1 2 cbr 1000 ------- 2 1.0 2.0 5 5
r 0.1108 1 2 cbr 1000 ------- 2 1.0 2.0 0 0
+ 0.112 1 2 cbr 1000 ------- 2 1.0 2.0 6 6
- 0.112 1 2 cbr 1000 ------- 2 1.0 2.0 6 6
r 0.1128 1 2 cbr 1000 ------- 2 1.0 2.0 1 1
+ 0.114 1 2 cbr 1000 ------- 2 1.0 2.0 7 7
- 0.114 1 2 cbr 1000 ------- 2 1.0 2.0 7 7
r 0.1148 1 2 cbr 1000 ------- 2 1.0 2.0 2 2
+ 0.116 1 2 cbr 1000 ------- 2 1.0 2.0 8 8
- 0.116 1 2 cbr 1000 ------- 2 1.0 2.0 8 8
r 0.1168 1 2 cbr 1000 ------- 2 1.0 2.0 3 3
+ 0.118 1 2 cbr 1000 ------- 2 1.0 2.0 9 9
- 0.118 1 2 cbr 1000 ------- 2 1.0 2.0 9 9
r 0.1188 1 2 cbr 1000 ------- 2 1.0 2.0 4 4
+ 0.12 1 2 cbr 1000 ------- 2 1.0 2.0 10 10
- 0.12 1 2 cbr 1000 ------- 2 1.0 2.0 10 10
r 0.1208 1 2 cbr 1000 ------- 2 1.0 2.0 5 5
+ 0.122 1 2 cbr 1000 ------- 2 1.0 2.0 11 11
- 0.122 1 2 cbr 1000 ------- 2 1.0 2.0 11 11
r 0.1228 1 2 cbr 1000 ------- 2 1.0 2.0 6 6
+ 0.124 1 2 cbr 1000 ------- 2 1.0 2.0 12 12
- 0.124 1 2 cbr 1000 ------- 2 1.0 2.0 12 12
r 0.1248 1 2 cbr 1000 ------- 2 1.0 2.0 7 7
+ 0.126 1 2 cbr 1000 ------- 2 1.0 2.0 13 13
- 0.126 1 2 cbr 1000 ------- 2 1.0 2.0 13 13
r 0.1268 1 2 cbr 1000 ------- 2 1.0 2.0 8 8
+ 0.128 1 2 cbr 1000 ------- 2 1.0 2.0 14 14
- 0.128 1 2 cbr 1000 ------- 2 1.0 2.0 14 14
r 0.1288 1 2 cbr 1000 ------- 2 1.0 2.0 9 9
+ 0.13 1 2 cbr 1000 ------- 2 1.0 2.0 15 15
- 0.13 1 2 cbr 1000 ------- 2 1.0 2.0 15 15
r 0.1308 1 2 cbr 1000 ------- 2 1.0 2.0 10 10
+ 0.132 1 2 cbr 1000 ------- 2 1.0 2.0 16 16
- 0.132 1 2 cbr 1000 ------- 2 1.0 2.0 16 16
r 0.1328 1 2 cbr 1000 ------- 2 1.0 2.0 11 11
+ 0.134 1 2 cbr 1000 ------- 2 1.0 2.0 17 17
- 0.134 1 2 cbr 1000 ------- 2 1.0 2.0 17 17
r 0.1348 1 2 cbr 1000 ------- 2 1.0 2.0 12 12
+ 0.136 1 2 cbr 1000 ------- 2 1.0 2.0 18 18
- 0.136 1 2 cbr 1000 ------- 2 1.0 2.0 18 18
r 0.1368 1 2 cbr 1000 ------- 2 1.0 2.0 13 13
+ 0.138 1 2 cbr 1000 ------- 2 1.0 2.0 19 19
- 0.138 1 2 cbr 1000 ------- 2 1.0 2.0 19 19
r 0.1388 1 2 cbr 1000 ------- 2 1.0 2.0 14 14
+ 0.14 1 2 cbr 1000 ------- 2 1.0 2.0 20 20
- 0.14 1 2 cbr 1000 ------- 2 1.0 2.0 20 20
r 0.1408 1 2 cbr 1000 ------- 2 1.0 2.0 15 15
+ 0.142 1 2 cbr 1000 ------- 2 1.0 2.0 21 21
- 0.142 1 2 cbr 1000 ------- 2 1.0 2.0 21 21
r 0.1428 1 2 cbr 1000 ------- 2 1.0 2.0 16 16
+ 0.144 1 2 cbr 1000 ------- 2 1.0 2.0 22 22
- 0.144 1 2 cbr 1000 ------- 2 1.0 2.0 22 22
r 0.1448 1 2 cbr 1000 ------- 2 1.0 2.0 17 17
+ 0.146 1 2 cbr 1000 ------- 2 1.0 2.0 23 23
- 0.146 1 2 cbr 1000 ------- 2 1.0 2.0 23 23
r 0.1468 1 2 cbr 1000 ------- 2 1.0 2.0 18 18
+ 0.148 1 2 cbr 1000 ------- 2 1.0 2.0 24 24
- 0.148 1 2 cbr 1000 ------- 2 1.0 2.0 24 24
r 0.1488 1 2 cbr 1000 ------- 2 1.0 2.0 19 19
+ 0.15 1 2 cbr 1000 ------- 2 1.0 2.0 25 25
- 0.15 1 2 cbr 1000 ------- 2 1.0 2.0 25 25
r 0.1508 1 2 cbr 1000 ------- 2 1.0 2.0 20 20
+ 0.152 1 2 cbr 1000 ------- 2 1.0 2.0 26 26
- 0.152 1 2 cbr 1000 ------- 2 1.0 2.0 26 26
r 0.1528 1 2 cbr 1000 ------- 2 1.0 2.0 21 21
+ 0.154 1 2 cbr 1000 ------- 2 1.0 2.0 27 27
- 0.154 1 2 cbr 1000 ------- 2 1.0 2.0 27 27
r 0.1548 1 2 cbr 1000 ------- 2 1.0 2.0 22 22
+ 0.156 1 2 cbr 1000 ------- 2 1.0 2.0 28 28
- 0.156 1 2 cbr 1000 ------- 2 1.0 2.0 28 28
r 0.1568 1 2 cbr 1000 ------- 2 1.0 2.0 23 23
+ 0.158 1 2 cbr 1000 ------- 2 1.0 2.0 29 29
- 0.158 1 2 cbr 1000 ------- 2 1.0 2.0 29 29
r 0.1588 1 2 cbr 1000 ------- 2 1.0 2.0 24 24
+ 0.16 1 2 cbr 1000 ------- 2 1.0 2.0 30 30
- 0.16 1 2 cbr 1000 ------- 2 1.0 2.0 30 30
r 0.1608 1 2 cbr 1000 ------- 2 1.0 2.0 25 25
+ 0.162 1 2 cbr 1000 ------- 2 1.0 2.0 31 31
- 0.162 1 2 cbr 1000 ------- 2 1.0 2.0 31 31
r 0.1628 1 2 cbr 1000 ------- 2 1.0 2.0 26 26
+ 0.164 1 2 cbr 1000 ------- 2 1.0 2.0 32 32
- 0.164 1 2 cbr 1000 ------- 2 1.0 2.0 32 32
r 0.1648 1 2 cbr 1000 ------- 2 1.0 2.0 27 27
+ 0.166 1 2 cbr 1000 ------- 2 1.0 2.0 33 33
- 0.166 1 2 cbr 1000 ------- 2 1.0 2.0 33 33
r 0.1668 1 2 cbr 1000 ------- 2 1.0 2.0 28 28
+ 0.168 1 2 cbr 1000 ------- 2 1.0 2.0 34 34
- 0.168 1 2 cbr 1000 ------- 2 1.0 2.0 34 34
r 0.1688 1 2 cbr 1000 ------- 2 1.0 2.0 29 29
+ 0.17 1 2 cbr 1000 ------- 2 1.0 2.0 35 35
- 0.17 1 2 cbr 1000 ------- 2 1.0 2.0 35 35
r 0.1708 1 2 cbr 1000 ------- 2 1.0 2.0 30 30
+ 0.172 1 2 cbr 1000 ------- 2 1.0 2.0 36 36
- 0.172 1 2 cbr 1000 ------- 2 1.0 2.0 36 36
r 0.1728 1 2 cbr 1000 ------- 2 1.0 2.0 31 31
+ 0.174 1 2 cbr 1000 ------- 2 1.0 2.0 37 37
- 0.174 1 2 cbr 1000 ------- 2 1.0 2.0 37 37
r 0.1748 1 2 cbr 1000 ------- 2 1.0 2.0 32 32
+ 0.176 1 2 cbr 1000 ------- 2 1.0 2.0 38 38
- 0.176 1 2 cbr 1000 ------- 2 1.0 2.0 38 38
r 0.1768 1 2 cbr 1000 ------- 2 1.0 2.0 33 33
+ 0.178 1 2 cbr 1000 ------- 2 1.0 2.0 39 39
- 0.178 1 2 cbr 1000 ------- 2 1.0 2.0 39 39
r 0.1788 1 2 cbr 1000 ------- 2 1.0 2.0 34 34
+ 0.18 1 2 cbr 1000 ------- 2 1.0 2.0 40 40
- 0.18 1 2 cbr 1000 ------- 2 1.0 2.0 40 40
r 0.1808 1 2 cbr 1000 ------- 2 1.0 2.0 35 35
+ 0.182 1 2 cbr 1000 ------- 2 1.0 2.0 41 41
- 0.182 1 2 cbr 1000 ------- 2 1.0 2.0 41 41
r 0.1828 1 2 cbr 1000 ------- 2 1.0 2.0 36 36
+ 0.184 1 2 cbr 1000 ------- 2 1.0 2.0 42 42
- 0.184 1 2 cbr 1000 ------- 2 1.0 2.0 42 42
r 0.1848 1 2 cbr 1000 ------- 2 1.0 2.0 37 37
+ 0.186 1 2 cbr 1000 ------- 2 1.0 2.0 43 43
- 0.186 1 2 cbr 1000 ------- 2 1.0 2.0 43 43
r 0.1868 1 2 cbr 1000 ------- 2 1.0 2.0 38 38
+ 0.188 1 2 cbr 1000 ------- 2 1.0 2.0 44 44
- 0.188 1 2 cbr 1000 ------- 2 1.0 2.0 44 44
r 0.1888 1 2 cbr 1000 ------- 2 1.0 2.0 39 39
+ 0.19 1 2 cbr 1000 ------- 2 1.0 2.0 45 45
- 0.19 1 2 cbr 1000 ------- 2 1.0 2.0 45 45
r 0.1908 1 2 cbr 1000 ------- 2 1.0 2.0 40 40
+ 0.192 1 2 cbr 1000 ------- 2 1.0 2.0 46 46
- 0.192 1 2 cbr 1000 ------- 2 1.0 2.0 46 46
r 0.1928 1 2 cbr 1000 ------- 2 1.0 2.0 41 41
+ 0.194 1 2 cbr 1000 ------- 2 1.0 2.0 47 47
- 0.194 1 2 cbr 1000 ------- 2 1.0 2.0 47 47
r 0.1948 1 2 cbr 1000 ------- 2 1.0 2.0 42 42
+ 0.196 1 2 cbr 1000 ------- 2 1.0 2.0 48 48
- 0.196 1 2 cbr 1000 ------- 2 1.0 2.0 48 48
r 0.1968 1 2 cbr 1000 ------- 2 1.0 2.0 43 43
+ 0.198 1 2 cbr 1000 ------- 2 1.0 2.0 49 49
- 0.198 1 2 cbr 1000 ------- 2 1.0 2.0 49 49
r 0.1988 1 2 cbr 1000 ------- 2 1.0 2.0 44 44
+ 0.2 0 1 tcp 1000 ------- 1 0.0 3.0 0 50
- 0.2 0 1 tcp 1000 ------- 1 0.0 3.0 0 50
+ 0.2 1 2 cbr 1000 ------- 2 1.0 2.0 50 51
- 0.2 1 2 cbr 1000 ------- 2 1.0 2.0 50 51
r 0.2008 1 2 cbr 1000 ------- 2 1.0 2.0 45 45
+ 0.202 1 2 cbr 1000 ------- 2 1.0 2.0 51 52
- 0.202 1 2 cbr 1000 ------- 2 1.0 2.0 51 52
r 0.2028 1 2 cbr 1000 ------- 2 1.0 2.0 46 46
+ 0.204 1 2 cbr 1000 ------- 2 1.0 2.0 52 53
- 0.204 1 2 cbr 1000 ------- 2 1.0 2.0 52 53
r 0.2048 1 2 cbr 1000 ------- 2 1.0 2.0 47 47
+ 0.206 1 2 cbr 1000 ------- 2 1.0 2.0 53 54
- 0.206 1 2 cbr 1000 ------- 2 1.0 2.0 53 54
r 0.2068 1 2 cbr 1000 ------- 2 1.0 2.0 48 48
+ 0.208 1 2 cbr 1000 ------- 2 1.0 2.0 54 55
- 0.208 1 2 cbr 1000 ------- 2 1.0 2.0 54 55
r 0.2088 1 2 cbr 1000 ------- 2 1.0 2.0 49 49
+ 0.21 1 2 cbr 1000 ------- 2 1.0 2.0 55 56
- 0.21 1 2 cbr 1000 ------- 2 1.0 2.0 55 56
r 0.2108 0 1 tcp 1000 ------- 1 0.0 3.0 0 50
+ 0.2108 1 2 tcp 1000 ------- 1 0.0 3.0 0 50
r 0.2108 1 2 cbr 1000 ------- 2 1.0 2.0 50 51
- 0.2108 1 2 tcp 1000 ------- 1 0.0 3.0 0 50
+ 0.212 1 2 cbr 1000 ------- 2 1.0 2.0 56 57
- 0.212 1 2 cbr 1000 ------- 2 1.0 2.0 56 57
r 0.2128 1 2 cbr 1000 ------- 2 1.0 2.0 51 52
+ 0.214 1 2 cbr 1000 ------- 2 1.0 2.0 57 58
- 0.214 1 2 cbr 1000 ------- 2 1.0 2.0 57 58
r 0.2148 1 2 cbr 1000 ------- 2 1.0 2.0 52 53
+ 0.216 1 2 cbr 1000 ------- 2 1.0 2.0 58 59
- 0.216 1 2 cbr 1000 ------- 2 1.0 2.0 58 59
r 0.2168 1 2 cbr 1000 ------- 2 1.0 2.0 53 54
+ 0.218 1 2 cbr 1000 ------- 2 1.0 2.0 59 60
- 0.218 1 2 cbr 1000 ------- 2 1.0 2.0 59 60
r 0.2188 1 2 cbr 1000 ------- 2 1.0 2.0 54 55
+ 0.22 1 2 cbr 1000 ------- 2 1.0 2.0 60 61
- 0.22 1 2 cbr 1000 ------- 2 1.0 2.0 60 61
r 0.2208 1 2 cbr 1000 ------- 2 1.0 2.0 55 56
r 0.2216 1 2 tcp 1000 ------- 1 0.0 3.0 0 50
+ 0.2216 2 3 tcp 1000 ------- 1 0.0 3.0 0 50
- 0.2216 2 3 tcp 1000 ------- 1 0.0 3.0 0 50
+ 0.222 1 2 cbr 1000 ------- 2 1.0 2.0 61 62
- 0.222 1 2 cbr 1000 ------- 2 1.0 2.0 61 62
r 0.2228 1 2 cbr 1000 ------- 2 1.0 2.0 56 57
+ 0.224 1 2 cbr 1000 ------- 2 1.0 2.0 62 63
- 0.224 1 2 cbr 1000 ------- 2 1.0 2.0 62 63
r 0.2248 1 2 cbr 1000 ------- 2 1.0 2.0 57 58
+ 0.226 1 2 cbr 1000 ------- 2 1.0 2.0 63 64
- 0.226 1 2 cbr 1000 ------- 2 1.0 2.0 63 64
r 0.2268 1 2 cbr 1000 ------- 2 1.0 2.0 58 59
+ 0.228 1 2 cbr 1000 ------- 2 1.0 2.0 64 65
- 0.228 1 2 cbr 1000 ------- 2 1.0 2.0 64 65
r 0.2288 1 2 cbr 1000 ------- 2 1.0 2.0 59 60
+ 0.23 1 2 cbr 1000 ------- 2 1.0 2.0 65 66
- 0.23 1 2 cbr 1000 ------- 2 1.0 2.0 65 66
r 0.2308 1 2 cbr 1000 ------- 2 1.0 2.0 60 61
+ 0.232 1 2 cbr 1000 ------- 2 1.0 2.0 66 67
- 0.232 1 2 cbr 1000 ------- 2 1.0 2.0 66 67
r 0.2324 2 3 tcp 1000 ------- 1 0.0 3.0 0 50
+ 0.2324 3 2 ack 40 ------- 1 3.0 0.0 0 68
- 0.2324 3 2 ack 40 ------- 1 3.0 0.0 0 68
r 0.2328 1 2 cbr 1000 ------- 2 1.0 2.0 61 62
+ 0.234 1 2 cbr 1000 ------- 2 1.0 2.0 67 69
- 0.234 1 2 cbr 1000 ------- 2 1.0 2.0 67 69
r 0.2348 1 2 cbr 1000 ------- 2 1.0 2.0 62 63
+ 0.236 1 2 cbr 1000 ------- 2 1.0 2.0 68 70
- 0.236 1 2 cbr 1000 ------- 2 1.0 2.0 68 70
r 0.2368 1 2 cbr 1000 ------- 2 1.0 2.0 63 64
+ 0.238 1 2 cbr 1000 ------- 2 1.0 2.0 69 71
- 0.238 1 2 cbr 1000 ------- 2 1.0 2.0 69 71
r 0.2388 1 2 cbr 1000 ------- 2 1.0 2.0 64 65
+ 0.24 1 2 cbr 1000 ------- 2 1.0 2.0 70 72
- 0.24 1 2 cbr 1000 ------- 2 1.0 2.0 70 72
r 0.2408 1 2 cbr 1000 ------- 2 1.0 2.0 65 66
+ 0.242 1 2 cbr 1000 ------- 2 1.0 2.0 71 73
- 0.242 1 2 cbr 1000 ------- 2 1.0 2.0 71 73
r 0.242432 3 2 ack 40 ------- 1 3.0 0.0 0 68
+ 0.242432 2 1 ack 40 ------- 1 3.0 0.0 0 68
- 0.242432 2 1 ack 40 ------- 1 3.0 0.0 0 68
r 0.2428 1 2 cbr 1000 ------- 2 1.0 2.0 66 67
+ 0.244 1 2 cbr 1000 ------- 2 1.0 2.0 72 74
- 0.244 1 2 cbr 1000 ------- 2 1.0 2.0 72 74
r 0.2448 1 2 cbr 1000 ------- 2 1.0 2.0 67 69
+ 0.246 1 2 cbr 1000 ------- 2 1.0 2.0 73 75
- 0.246 1 2 cbr 1000 ------- 2 1.0 2.0 73 75
r 0.2468 1 2 cbr 1000 ------- 2 1.0 2.0 68 70
+ 0.248 1 2 cbr 1000 ------- 2 1.0 2.0 74 76
- 0.248 1 2 cbr 1000 ------- 2 1.0 2.0 74 76
r 0.2488 1 2 cbr 1000 ------- 2 1.0 2.0 69 71
+ 0.25 1 2 cbr 1000 ------- 2 1.0 2.0 75 77
- 0.25 1 2 cbr 1000 ------- 2 1.0 2.0 75 77
r 0.2508 1 2 cbr 1000 ------- 2 1.0 2.0 70 72
+ 0.252 1 2 cbr 1000 ------- 2 1.0 2.0 76 78
- 0.252 1 2 cbr 1000 ------- 2 1.0 2.0 76 78
r 0.252464 2 1 ack 40 ------- 1 3.0 0.0 0 68
+ 0.252464 1 0 ack 40 ------- 1 3.0 0.0 0 68
- 0.252464 1 0 ack 40 ------- 1 3.0 0.0 0 68
r 0.2528 1 2 cbr 1000 ------- 2 1.0 2.0 71 73
+ 0.254 1 2 cbr 1000 ------- 2 1.0 2.0 77 79
- 0.254 1 2 cbr 1000 ------- 2 1.0 2.0 77 79
r 0.2548 1 2 cbr 1000 ------- 2 1.0 2.0 72 74
+ 0.256 1 2 cbr 1000 ------- 2 1.0 2.0 78 80
- 0.256 1 2 cbr 1000 ------- 2 1.0 2.0 78 80
r 0.2568 1 2 cbr 1000 ------- 2 1.0 2.0 73 75
+ 0.258 1 2 cbr 1000 ------- 2 1.0 2.0 79 81
- 0.258 1 2 cbr 1000 ------- 2 1.0 2.0 79 81
r 0.2588 1 2 cbr 1000 ------- 2 1.0 2.0 74 76
+ 0.26 1 2 cbr 1000 ------- 2 1.0 2.0 80 82
- 0.26 1 2 cbr 1000 ------- 2 1.0 2.0 80 82
r 0.2608 1 2 cbr 1000 ------- 2 1.0 2.0 75 77
+ 0.262 1 2 cbr 1000 ------- 2 1.0 2.0 81 83
- 0.262 1 2 cbr 1000 ------- 2 1.0 2.0 81 83
r 0.262496 1 0 ack 40 ------- 1 3.0 0.0 0 68
+ 0.262496 0 1 tcp 1000 ------- 1 0.0 3.0 1 84
- 0.262496 0 1 tcp 1000 ------- 1 0.0 3.0 1 84
r 0.2628 1 2 cbr 1000 ------- 2 1.0 2.0 76 78
+ 0.264 1 2 cbr 1000 ------- 2 1.0 2.0 82 85
- 0.264 1 2 cbr 1000 ------- 2 1.0 2.0 82 85
r 0.2648 1 2 cbr 1000 ------- 2 1.0 2.0 77 79
+ 0.266 1 2 cbr 1000 ------- 2 1.0 2.0 83 86
- 0.266 1 2 cbr 1000 ------- 2 1.0 2.0 83 86
r 0.2668 1 2 cbr 1000 ------- 2 1.0 2.0 78 80
+ 0.268 1 2 cbr 1000 ------- 2 1.0 2.0 84 87
- 0.268 1 2 cbr 1000 ------- 2 1.0 2.0 84 87
r 0.2688 1 2 cbr 1000 ------- 2 1.0 2.0 79 81
+ 0.27 1 2 cbr 1000 ------- 2 1.0 2.0 85 88
- 0.27 1 2 cbr 1000 ------- 2 1.0 2.0 85 88
r 0.2708 1 2 cbr 1000 ------- 2 1.0 2.0 80 82
+ 0.272 1 2 cbr 1000 ------- 2 1.0 2.0 86 89
- 0.272 1 2 cbr 1000 ------- 2 1.0 2.0 86 89
r 0.2728 1 2 cbr 1000 ------- 2 1.0 2.0 81 83
r 0.273296 0 1 tcp 1000 ------- 1 0.0 3.0 1 84
+ 0.273296 1 2 tcp 1000 ------- 1 0.0 3.0 1 84
- 0.273296 1 2 tcp 1000 ------- 1 0.0 3.0 1 84
+ 0.274 1 2 cbr 1000 ------- 2 1.0 2.0 87 90
- 0.274096 1 2 cbr 1000 ------- 2 1.0 2.0 87 90
r 0.2748 1 2 cbr 1000 ------- 2 1.0 2.0 82 85
+ 0.276 1 2 cbr 1000 ------- 2 1.0 2.0 88 91
- 0.276 1 2 cbr 1000 ------- 2 1.0 2.0 88 91
r 0.2768 1 2 cbr 1000 ------- 2 1.0 2.0 83 86
+ 0.278 1 2 cbr 1000 ------- 2 1.0 2.0 89 92
- 0.278 1 2 cbr 1000 ------- 2 1.0 2.0 89 92
r 0.2788 1 2 cbr 1000 ------- 2 1.0 2.0 84 87
+ 0.28 1 2 cbr 1000 ------- 2 1.0 2.0 90 93
- 0.28 1 2 cbr 1000 ------- 2 1.0 2.0 90 93
r 0.2808 1 2 cbr 1000 ------- 2 1.0 2.0 85 88
+ 0.282 1 2 cbr 1000 ------- 2 1.0 2.0 91 94
- 0.282 1 2 cbr 1000 ------- 2 1.0 2.0 91 94
r 0.2828 1 2 cbr 1000 ------- 2 1.0 2.0 86 89
+ 0.284 1 2 cbr 1000 ------- 2 1.0 2.0 92 95
- 0.284 1 2 cbr 1000 ------- 2 1.0 2.0 92 95
r 0.284096 1 2 tcp 1000 ------- 1 0.0 3.0 1 84
+ 0.284096 2 3 tcp 1000 ------- 1 0.0 3.0 1 84
- 0.284096 2 3 tcp 1000 ------- 1 0.0 3.0 1 84
r 0.284896 1 2 cbr 1000 ------- 2 1.0 2.0 87 90
+ 0.286 1 2 cbr 1000 ------- 2 1.0 2.0 93 96
- 0.286 1 2 cbr 1000 ------- 2 1.0 2.0 93 96
r 0.2868 1 2 cbr 1000 ------- 2 1.0 2.0 88 91
+ 0.288 1 2 cbr 1000 ------- 2 1.0 2.0 94 97
- 0.288 1 2 cbr 1000 ------- 2 1.0 2.0 94 97
r 0.2888 1 2 cbr 1000 ------- 2 1.0 2.0 89 92
+ 0.29 1 2 cbr 1000 ------- 2 1.0 2.0 95 98
- 0.29 1 2 cbr 1000 ------- 2 1.0 2.0 95 98
r 0.2908 1 2 cbr 1000 ------- 2 1.0 2.0 90 93
+ 0.292 1 2 cbr 1000 ------- 2 1.0 2.0 96 99
- 0.292 1 2 cbr 1000 ------- 2 1.0 2.0 96 99
r 0.2928 1 2 cbr 1000 ------- 2 1.0 2.0 91 94
+ 0.294 1 2 cbr 1000 ------- 2 1.0 2.0 97 100
- 0.294 1 2 cbr 1000 ------- 2 1.0 2.0 97 100
r 0.2948 1 2 cbr 1000 ------- 2 1.0 2.0 92 95
r 0.294896 2 3 tcp 1000 ------- 1 0.0 3.0 1 84
+ 0.294896 3 2 ack 40 ------- 1 3.0 0.0 1 101
- 0.294896 3 2 ack 40 ------- 1 3.0 0.0 1 101
+ 0.296 1 2 cbr 1000 ------- 2 1.0 2.0 98 102
- 0.296 1 2 cbr 1000 ------- 2 1.0 2.0 98 102
r 0.2968 1 2 cbr 1000 ------- 2 1.0 2.0 93 96
+ 0.298 1 2 cbr 1000 ------- 2 1.0 2.0 99 103
- 0.298 1 2 cbr 1000 ------- 2 1.0 2.0 99 103
r 0.2988 1 2 cbr 1000 ------- 2 1.0 2.0 94 97
+ 0.3 1 2 cbr 1000 ------- 2 1.0 2.0 100 104
- 0.3 1 2 cbr 1000 ------- 2 1.0 2.0 100 104
r 0.3008 1 2 cbr 1000 ------- 2 1.0 2.0 95 98
+ 0.302 1 2 cbr 1000 ------- 2 1.0 2.0 101 105
- 0.302 1 2 cbr 1000 ------- 2 1.0 2.0 101 105
r 0.3028 1 2 cbr 1000 ------- 2 1.0 2.0 96 99
+ 0.304 1 2 cbr 1000 ------- 2 1.0 2.0 102 106
- 0.304 1 2 cbr 1000 ------- 2 1.0 2.0 102 106
r 0.3048 1 2 cbr 1000 ------- 2 1.0 2.0 97 100
r 0.304928 3 2 ack 40 ------- 1 3.0 0.0 1 101
+ 0.304928 2 1 ack 40 ------- 1 3.0 0.0 1 101
- 0.304928 2 1 ack 40 ------- 1 3.0 0.0 1 101
+ 0.306 1 2 cbr 1000 ------- 2 1.0 2.0 103 107
- 0.306 1 2 cbr 1000 ------- 2 1.0 2.0 103 107
r 0.3068 1 2 cbr 1000 ------- 2 1.0 2.0 98 102
+ 0.308 1 2 cbr 1000 ------- 2 1.0 2.0 104 108
- 0.308 1 2 cbr 1000 ------- 2 1.0 2.0 104 108
r 0.3088 1 2 cbr 1000 ------- 2 1.0 2.0 99 103
+ 0.31 1 2 cbr 1000 ------- 2 1.0 2.0 105 109
- 0.31 1 2 cbr 1000 ------- 2 1.0 2.0 105 109
r 0.3108 1 2 cbr 1000 ------- 2 1.0 2.0 100 104
+ 0.312 1 2 cbr 1000 ------- 2 1.0 2.0 106 110
- 0.312 1 2 cbr 1000 ------- 2 1.0 2.0 106 110
r 0.3128 1 2 cbr 1000 ------- 2 1.0 2.0 101 105
+ 0.314 1 2 cbr 1000 ------- 2 1.0 2.0 107 111
- 0.314 1 2 cbr 1000 ------- 2 1.0 2.0 107 111
r 0.3148 1 2 cbr 1000 ------- 2 1.0 2.0 102 106
r 0.31496 2 1 ack 40 ------- 1 3.0 0.0 1 101
+ 0.31496 1 0 ack 40 ------- 1 3.0 0.0 1 101
- 0.31496 1 0 ack 40 ------- 1 3.0 0.0 1 101
+ 0.316 1 2 cbr 1000 ------- 2 1.0 2.0 108 112
- 0.316 1 2 cbr 1000 ------- 2 1.0 2.0 108 112
r 0.3168 1 2 cbr 1000 ------- 2 1.0 2.0 103 107
+ 0.318 1 2 cbr 1000 ------- 2 1.0 2.0 109 113
- 0.318 1 2 cbr 1000 ------- 2 1.0 2.0 109 113
r 0.3188 1 2 cbr 1000 ------- 2 1.0 2.0 104 108
+ 0.32 1 2 cbr 1000 ------- 2 1.0 2.0 110 114
- 0.32 1 2 cbr 1000 ------- 2 1.0 2.0 110 114
r 0.3208 1 2 cbr 1000 ------- 2 1.0 2.0 105 109
+ 0.322 1 2 cbr 1000 ------- 2 1.0 2.0 111 115
- 0.322 1 2 cbr 1000 ------- 2 1.0 2.0 111 115
r 0.3228 1 2 cbr 1000 ------- 2 1.0 2.0 106 110
+ 0.324 1 2 cbr 1000 ------- 2 1.0 2.0 112 116
- 0.324 1 2 cbr 1000 ------- 2 1.0 2.0 112 116
r 0.3248 1 2 cbr 1000 ------- 2 1.0 2.0 107 111
r 0.324992 1 0 ack 40 ------- 1 3.0 0.0 1 101
+ 0.324992 0 1 tcp 1000 ------- 1 0.0 3.0 2 117
- 0.324992 0 1 tcp 1000 ------- 1 0.0 3.0 2 117
+ 0.324992 0 1 tcp 1000 ------- 1 0.0 3.0 3 118
+ 0.324992 0 1 tcp 1000 ------- 1 0.0 3.0 4 119
- 0.325792 0 1 tcp 1000 ------- 1 0.0 3.0 3 118
+ 0.326 1 2 cbr 1000 ------- 2 1.0 2.0 113 120
- 0.326 1 2 cbr 1000 ------- 2 1.0 2.0 113 120
- 0.326592 0 1 tcp 1000 ------- 1 0.0 3.0 4 119
r 0.3268 1 2 cbr 1000 ------- 2 1.0 2.0 108 112
+ 0.328 1 2 cbr 1000 ------- 2 1.0 2.0 114 121
- 0.328 1 2 cbr 1000 ------- 2 1.0 2.0 114 121
r 0.3288 1 2 cbr 1000 ------- 2 1.0 2.0 109 113
+ 0.33 1 2 cbr 1000 ------- 2 1.0 2.0 115 122
- 0.33 1 2 cbr 1000 ------- 2 1.0 2.0 115 122
r 0.3308 1 2 cbr 1000 ------- 2 1.0 2.0 110 114
+ 0.332 1 2 cbr 1000 ------- 2 1.0 2.0 116 123
- 0.332 1 2 cbr 1000 ------- 2 1.0 2.0 116 123
r 0.3328 1 2 cbr 1000 ------- 2 1.0 2.0 111 115
+ 0.334 1 2 cbr 1000 ------- 2 1.0 2.0 117 124
- 0.334 1 2 cbr 1000 ------- 2 1.0 2.0 117 124
r 0.3348 1 2 cbr 1000 ------- 2 1.0 2.0 112 116
r 0.335792 0 1 tcp 1000 ------- 1 0.0 3.0 2 117
+ 0.335792 1 2 tcp 1000 ------- 1 0.0 3.0 2 117
- 0.335792 1 2 tcp 1000 ------- 1 0.0 3.0 2 117
+ 0.336 1 2 cbr 1000 ------- 2 1.0 2.0 118 125
r 0.336592 0 1 tcp 1000 ------- 1 0.0 3.0 3 118
+ 0.336592 1 2 tcp 1000 ------- 1 0.0 3.0 3 118
- 0.336592 1 2 cbr 1000 ------- 2 1.0 2.0 118 125
r 0.3368 1 2 cbr 1000 ------- 2 1.0 2.0 113 120
r 0.337392 0 1 tcp 1000 ------- 1 0.0 3.0 4 119
+ 0.337392 1 2 tcp 1000 ------- 1 0.0 3.0 4 119
- 0.337392 1 2 tcp 1000 ------- 1 0.0 3.0 3 118
+ 0.338 1 2 cbr 1000 ------- 2 1.0 2.0 119 126
- 0.338192 1 2 tcp 1000 ------- 1 0.0 3.0 4 119
r 0.3388 1 2 cbr 1000 ------- 2 1.0 2.0 114 121
- 0.338992 1 2 cbr 1000 ------- 2 1.0 2.0 119 126
+ 0.34 1 2 cbr 1000 ------- 2 1.0 2.0 120 127
- 0.34 1 2 cbr 1000 ------- 2 1.0 2.0 120 127
r 0.3408 1 2 cbr 1000 ------- 2 1.0 2.0 115 122
+ 0.342 1 2 cbr 1000 ------- 2 1.0 2.0 121 128
- 0.342 1 2 cbr 1000 ------- 2 1.0 2.0 121 128
r 0.3428 1 2 cbr 1000 ------- 2 1.0 2.0 116 123
+ 0.344 1 2 cbr 1000 ------- 2 1.0 2.0 122 129
- 0.344 1 2 cbr 1000 ------- 2 1.0 2.0 122 129
r 0.3448 1 2 cbr 1000 ------- 2 1.0 2.0 117 124
+ 0.346 1 2 cbr 1000 ------- 2 1.0 2.0 123 130
- 0.346 1 2 cbr 1000 ------- 2 1.0 2.0 123 130
r 0.346592 1 2 tcp 1000 ------- 1 0.0 3.0 2 117
+ 0.346592 2 3 tcp 1000 ------- 1 0.0 3.0 2 117
- 0.346592 2 3 tcp 1000 ------- 1 0.0 3.0 2 117
r 0.347392 1 2 cbr 1000 ------- 2 1.0 2.0 118 125
+ 0.348 1 2 cbr 1000 ------- 2 1.0 2.0 124 131
- 0.348 1 2 cbr 1000 ------- 2 1.0 2.0 124 131
r 0.348192 1 2 tcp 1000 ------- 1 0.0 3.0 3 118
+ 0.348192 2 3 tcp 1000 ------- 1 0.0 3.0 3 118
- 0.348192 2 3 tcp 1000 ------- 1 0.0 3.0 3 118
r 0.348992 1 2 tcp 1000 ------- 1 0.0 3.0 4 119
+ 0.348992 2 3 tcp 1000 ------- 1 0.0 3.0 4 119
- 0.348992 2 3 tcp 1000 ------- 1 0.0 3.0 4 119
r 0.349792 1 2 cbr 1000 ------- 2 1.0 2.0 119 126
+ 0.35 1 2 cbr 1000 ------- 2 1.0 2.0 125 132
- 0.35 1 2 cbr 1000 ------- 2 1.0 2.0 125 132
r 0.3508 1 2 cbr 1000 ------- 2 1.0 2.0 120 127
+ 0.352 1 2 cbr 1000 ------- 2 1.0 2.0 126 133
- 0.352 1 2 cbr 1000 ------- 2 1.0 2.0 126 133
r 0.3528 1 2 cbr 1000 ------- 2 1.0 2.0 121 128
+ 0.354 1 2 cbr 1000 ------- 2 1.0 2.0 127 134
- 0.354 1 2 cbr 1000 ------- 2 1.0 2.0 127 134
r 0.3548 1 2 cbr 1000 ------- 2 1.0 2.0 122 129
+ 0.356 1 2 cbr 1000 ------- 2 1.0 2.0 128 135
- 0.356 1 2 cbr 1000 ------- 2 1.0 2.0 128 135
r 0.3568 1 2 cbr 1000 ------- 2 1.0 2.0 123 130
r 0.357392 2 3 tcp 1000 ------- 1 0.0 3.0 2 117
+ 0.357392 3 2 ack 40 ------- 1 3.0 0.0 2 136
- 0.357392 3 2 ack 40 ------- 1 3.0 0.0 2 136
+ 0.358 1 2 cbr 1000 ------- 2 1.0 2.0 129 137
- 0.358 1 2 cbr 1000 ------- 2 1.0 2.0 129 137
r 0.3588 1 2 cbr 1000 ------- 2 1.0 2.0 124 131
r 0.358992 2 3 tcp 1000 ------- 1 0.0 3.0 3 118
+ 0.358992 3 2 ack 40 ------- 1 3.0 0.0 3 138
- 0.358992 3 2 ack 40 ------- 1 3.0 0.0 3 138
r 0.359792 2 3 tcp 1000 ------- 1 0.0 3.0 4 119
+ 0.359792 3 2 ack 40 ------- 1 3.0 0.0 4 139
- 0.359792 3 2 ack 40 ------- 1 3.0 0.0 4 139
+ 0.36 1 2 cbr 1000 ------- 2 1.0 2.0 130 140
- 0.36 1 2 cbr 1000 ------- 2 1.0 2.0 130 140
r 0.3608 1 2 cbr 1000 ------- 2 1.0 2.0 125 132
+ 0.362 1 2 cbr 1000 ------- 2 1.0 2.0 131 141
- 0.362 1 2 cbr 1000 ------- 2 1.0 2.0 131 141
r 0.3628 1 2 cbr 1000 ------- 2 1.0 2.0 126 133
+ 0.364 1 2 cbr 1000 ------- 2 1.0 2.0 132 142
- 0.364 1 2 cbr 1000 ------- 2 1.0 2.0 132 142
r 0.3648 1 2 cbr 1000 ------- 2 1.0 2.0 127 134
+ 0.366 1 2 cbr 1000 ------- 2 1.0 2.0 133 143
- 0.366 1 2 cbr 1000 ------- 2 1.0 2.0 133 143
r 0.3668 1 2 cbr 1000 ------- 2 1.0 2.0 128 135
r 0.367424 3 2 ack 40 ------- 1 3.0 0.0 2 136
+ 0.367424 2 1 ack 40 ------- 1 3.0 0.0 2 136
- 0.367424 2 1 ack 40 ------- 1 3.0 0.0 2 136
+ 0.368 1 2 cbr 1000 ------- 2 1.0 2.0 134 144
- 0.368 1 2 cbr 1000 ------- 2 1.0 2.0 134 144
r 0.3688 1 2 cbr 1000 ------- 2 1.0 2.0 129 137
r 0.369024 3 2 ack 40 ------- 1 3.0 0.0 3 138
+ 0.369024 2 1 ack 40 ------- 1 3.0 0.0 3 138
- 0.369024 2 1 ack 40 ------- 1 3.0 0.0 3 138
r 0.369824 3 2 ack 40 ------- 1 3.0 0.0 4 139
+ 0.369824 2 1 ack 40 ------- 1 3.0 0.0 4 139
- 0.369824 2 1 ack 40 ------- 1 3.0 0.0 4 139
+ 0.37 1 2 cbr 1000 ------- 2 1.0 2.0 135 145
- 0.37 1 2 cbr 1000 ------- 2 1.0 2.0 135 145
r 0.3708 1 2 cbr 1000 ------- 2 1.0 2.0 130 140
+ 0.372 1 2 cbr 1000 ------- 2 1.0 2.0 136 146
- 0.372 1 2 cbr 1000 ------- 2 1.0 2.0 136 146
r 0.3728 1 2 cbr 1000 ------- 2 1.0 2.0 131 141
+ 0.374 1 2 cbr 1000 ------- 2 1.0 2.0 137 147
- 0.374 1 2 cbr 1000 ------- 2 1.0 2.0 137 147
r 0.3748 1 2 cbr 1000 ------- 2 1.0 2.0 132 142
+ 0.376 1 2 cbr 1000 ------- 2 1.0 2.0 138 148
- 0.376 1 2 cbr 1000 ------- 2 1.0 2.0 138 148
r 0.3768 1 2 cbr 1000 ------- 2 1.0 2.0 133 143
r 0.377456 2 1 ack 40 ------- 1 3.0 0.0 2 136
+ 0.377456 1 0 ack 40 ------- 1 3.0 0.0 2 136
- 0.377456 1 0 ack 40 ------- 1 3.0 0.0 2 136
+ 0.378 1 2 cbr 1000 ------- 2 1.0 2.0 139 149
- 0.378 1 2 cbr 1000 ------- 2 1.0 2.0 139 149
r 0.3788 1 2 cbr 1000 ------- 2 1.0 2.0 134 144
r 0.379056 2 1 ack 40 ------- 1 3.0 0.0 3 138
+ 0.379056 1 0 ack 40 ------- 1 3.0 0.0 3 138
- 0.379056 1 0 ack 40 ------- 1 3.0 0.0 3 138
r 0.379856 2 1 ack 40 ------- 1 3.0 0.0 4 139
+ 0.379856 1 0 ack 40 ------- 1 3.0 0.0 4 139
- 0.379856 1 0 ack 40 ------- 1 3.0 0.0 4 139
+ 0.38 1 2 cbr 1000 ------- 2 1.0 2.0 140 150
- 0.38 1 2 cbr 1000 ------- 2 1.0 2.0 140 150
r 0.3808 1 2 cbr 1000 ------- 2 1.0 2.0 135 145
+ 0.382 1 2 cbr 1000 ------- 2 1.0 2.0 141 151
- 0.382 1 2 cbr 1000 ------- 2 1.0 2.0 141 151
r 0.3828 1 2 cbr 1000 ------- 2 1.0 2.0 136 146
+ 0.384 1 2 cbr 1000 ------- 2 1.0 2.0 142 152
- 0.384 1 2 cbr 1000 ------- 2 1.0 2.0 142 152
r 0.3848 1 2 cbr 1000 ------- 2 1.0 2.0 137 147
+ 0.386 1 2 cbr 1000 ------- 2 1.0 2.0 143 153
- 0.386 1 2 cbr 1000 ------- 2 1.0 2.0 143 153
r 0.3868 1 2 cbr 1000 ------- 2 1.0 2.0 138 148
r 0.387488 1 0 ack 40 ------- 1 3.0 0.0 2 136
+ 0.387488 0 1 tcp 1000 ------- 1 0.0 3.0 5 154
- 0.387488 0 1 tcp 1000 ------- 1 0.0 3.0 5 154
+ 0.388 1 2 cbr 1000 ------- 2 1.0 2.0 144 155
- 0.388 1 2 cbr 1000 ------- 2 1.0 2.0 144 155
r 0.3888 1 2 cbr 1000 ------- 2 1.0 2.0 139 149
r 0.389088 1 0 ack 40 ------- 1 3.0 0.0 3 138
+ 0.389088 0 1 tcp 1000 ------- 1 0.0 3.0 6 156
- 0.389088 0 1 tcp 1000 ------- 1 0.0 3.0 6 156
r 0.389888 1 0 ack 40 ------- 1 3.0 0.0 4 139
+ 0.389888 0 1 tcp 1000 ------- 1 0.0 3.0 7 157
- 0.389888 0 1 tcp 1000 ------- 1 0.0 3.0 7 157
+ 0.39 1 2 cbr 1000 ------- 2 1.0 2.0 145 158
- 0.39 1 2 cbr 1000 ------- 2 1.0 2.0 145 158
r 0.3908 1 2 cbr 1000 ------- 2 1.0 2.0 140 150
+ 0.392 1 2 cbr 1000 ------- 2 1.0 2.0 146 159
- 0.392 1 2 cbr 1000 ------- 2 1.0 2.0 146 159
r 0.3928 1 2 cbr 1000 ------- 2 1.0 2.0 141 151
+ 0.394 1 2 cbr 1000 ------- 2 1.0 2.0 147 160
- 0.394 1 2 cbr 1000 ------- 2 1.0 2.0 147 160
r 0.3948 1 2 cbr 1000 ------- 2 1.0 2.0 142 152
+ 0.396 1 2 cbr 1000 ------- 2 1.0 2.0 148 161
- 0.396 1 2 cbr 1000 ------- 2 1.0 2.0 148 161
r 0.3968 1 2 cbr 1000 ------- 2 1.0 2.0 143 153
+ 0.398 1 2 cbr 1000 ------- 2 1.0 2.0 149 162
- 0.398 1 2 cbr 1000 ------- 2 1.0 2.0 149 162
r 0.398288 0 1 tcp 1000 ------- 1 0.0 3.0 5 154
+ 0.398288 1 2 tcp 1000 ------- 1 0.0 3.0 5 154
r 0.3988 1 2 cbr 1000 ------- 2 1.0 2.0 144 155
- 0.3988 1 2 tcp 1000 ------- 1 0.0 3.0 5 154
r 0.399888 0 1 tcp 1000 ------- 1 0.0 3.0 6 156
+ 0.399888 1 2 tcp 1000 ------- 1 0.0 3.0 6 156
- 0.399888 1 2 tcp 1000 ------- 1 0.0 3.0 6 156
+ 0.4 1 2 cbr 1000 ------- 2 1.0 2.0 150 163
r 0.400688 0 1 tcp 1000 ------- 1 0.0 3.0 7 157
+ 0.400688 1 2 tcp 1000 ------- 1 0.0 3.0 7 157
- 0.400688 1 2 cbr 1000 ------- 2 1.0 2.0 150 163
r 0.4008 1 2 cbr 1000 ------- 2 1.0 2.0 145 158
- 0.401488 1 2 tcp 1000 ------- 1 0.0 3.0 7 157
+ 0.402 1 2 cbr 1000 ------- 2 1.0 2.0 151 164
- 0.402288 1 2 cbr 1000 ------- 2 1.0 2.0 151 164
r 0.4028 1 2 cbr 1000 ------- 2 1.0 2.0 146 159
+ 0.404 1 2 cbr 1000 ------- 2 1.0 2.0 152 165
- 0.404 1 2 cbr 1000 ------- 2 1.0 2.0 152 165
r 0.4048 1 2 cbr 1000 ------- 2 1.0 2.0 147 160
+ 0.406 1 2 cbr 1000 ------- 2 1.0 2.0 153 166
- 0.406 1 2 cbr 1000 ------- 2 1.0 2.0 153 166
r 0.4068 1 2 cbr 1000 ------- 2 1.0 2.0 148 161
+ 0.408 1 2 cbr 1000 ------- 2 1.0 2.0 154 167
- 0.408 1 2 cbr 1000 ------- 2 1.0 2.0 154 167
r 0.4088 1 2 cbr 1000 ------- 2 1.0 2.0 149 162
r 0.4096 1 2 tcp 1000 ------- 1 0.0 3.0 5 154
+ 0.4096 2 3 tcp 1000 ------- 1 0.0 3.0 5 154
- 0.4096 2 3 tcp 1000 ------- 1 0.0 3.0 5 154
+ 0.41 1 2 cbr 1000 ------- 2 1.0 2.0 155 168
- 0.41 1 2 cbr 1000 ------- 2 1.0 2.0 155 168
r 0.410688 1 2 tcp 1000 ------- 1 0.0 3.0 6 156
+ 0.410688 2 3 tcp 1000 ------- 1 0.0 3.0 6 156
- 0.410688 2 3 tcp 1000 ------- 1 0.0 3.0 6 156
r 0.411488 1 2 cbr 1000 ------- 2 1.0 2.0 150 163
+ 0.412 1 2 cbr 1000 ------- 2 1.0 2.0 156 169
- 0.412 1 2 cbr 1000 ------- 2 1.0 2.0 156 169
r 0.412288 1 2 tcp 1000 ------- 1 0.0 3.0 7 157
+ 0.412288 2 3 tcp 1000 ------- 1 0.0 3.0 7 157
- 0.412288 2 3 tcp 1000 ------- 1 0.0 3.0 7 157
r 0.413088 1 2 cbr 1000 ------- 2 1.0 2.0 151 164
+ 0.414 1 2 cbr 1000 ------- 2 1.0 2.0 157 170
- 0.414 1 2 cbr 1000 ------- 2 1.0 2.0 157 170
r 0.4148 1 2 cbr 1000 ------- 2 1.0 2.0 152 165
+ 0.416 1 2 cbr 1000 ------- 2 1.0 2.0 158 171
- 0.416 1 2 cbr 1000 ------- 2 1.0 2.0 158 171
r 0.4168 1 2 cbr 1000 ------- 2 1.0 2.0 153 166
+ 0.418 1 2 cbr 1000 ------- 2 1.0 2.0 159 172
- 0.418 1 2 cbr 1000 ------- 2 1.0 2.0 159 172
r 0.4188 1 2 cbr 1000 ------- 2 1.0 2.0 154 167
+ 0.42 1 2 cbr 1000 ------- 2 1.0 2.0 160 173
- 0.42 1 2 cbr 1000 ------- 2 1.0 2.0 160 173
r 0.4204 2 3 tcp 1000 ------- 1 0.0 3.0 5 154
+ 0.4204 3 2 ack 40 ------- 1 3.0 0.0 5 174
- 0.4204 3 2 ack 40 ------- 1 3.0 0.0 5 174
r 0.4208 1 2 cbr 1000 ------- 2 1.0 2.0 155 168
r 0.421488 2 3 tcp 1000 ------- 1 0.0 3.0 6 156
+ 0.421488 3 2 ack 40 ------- 1 3.0 0.0 6 175
- 0.421488 3 2 ack 40 ------- 1 3.0 0.0 6 175
+ 0.422 1 2 cbr 1000 ------- 2 1.0 2.0 161 176
- 0.422 1 2 cbr 1000 ------- 2 1.0 2.0 161 176
r 0.4228 1 2 cbr 1000 ------- 2 1.0 2.0 156 169
r 0.423088 2 3 tcp 1000 ------- 1 0.0 3.0 7 157
+ 0.423088 3 2 ack 40 ------- 1 3.0 0.0 7 177
- 0.423088 3 2 ack 40 ------- 1 3.0 0.0 7 177
+ 0.424 1 2 cbr 1000 ------- 2 1.0 2.0 162 178
- 0.424 1 2 cbr 1000 ------- 2 1.0 2.0 162 178
r 0.4248 1 2 cbr 1000 ------- 2 1.0 2.0 157 170
+ 0.426 1 2 cbr 1000 ------- 2 1.0 2.0 163 179
- 0.426 1 2 cbr 1000 ------- 2 1.0 2.0 163 179
r 0.4268 1 2 cbr 1000 ------- 2 1.0 2.0 158 171
+ 0.428 1 2 cbr 1000 ------- 2 1.0 2.0 164 180
- 0.428 1 2 cbr 1000 ------- 2 1.0 2.0 164 180
r 0.4288 1 2 cbr 1000 ------- 2 1.0 2.0 159 172
+ 0.43 1 2 cbr 1000 ------- 2 1.0 2.0 165 181
- 0.43 1 2 cbr 1000 ------- 2 1.0 2.0 165 181
r 0.430432 3 2 ack 40 ------- 1 3.0 0.0 5 174
+ 0.430432 2 1 ack 40 ------- 1 3.0 0.0 5 174
- 0.430432 2 1 ack 40 ------- 1 3.0 0.0 5 174
r 0.4308 1 2 cbr 1000 ------- 2 1.0 2.0 160 173
r 0.43152 3 2 ack 40 ------- 1 3.0 0.0 6 175
+ 0.43152 2 1 ack 40 ------- 1 3.0 0.0 6 175
- 0.43152 2 1 ack 40 ------- 1 3.0 0.0 6 175
+ 0.432 1 2 cbr 1000 ------- 2 1.0 2.0 166 182
- 0.432 1 2 cbr 1000 ------- 2 1.0 2.0 166 182
r 0.4328 1 2 cbr 1000 ------- 2 1.0 2.0 161 176
r 0.43312 3 2 ack 40 ------- 1 3.0 0.0 7 177
+ 0.43312 2 1 ack 40 ------- 1 3.0 0.0 7 177
- 0.43312 2 1 ack 40 ------- 1 3.0 0.0 7 177
+ 0.434 1 2 cbr 1000 ------- 2 1.0 2.0 167 183
- 0.434 1 2 cbr 1000 ------- 2 1.0 2.0 167 183
r 0.4348 1 2 cbr 1000 ------- 2 1.0 2.0 162 178
+ 0.436 1 2 cbr 1000 ------- 2 1.0 2.0 168 184
- 0.436 1 2 cbr 1000 ------- 2 1.0 2.0 168 184
r 0.4368 1 2 cbr 1000 ------- 2 1.0 2.0 163 179
+ 0.438 1 2 cbr 1000 ------- 2 1.0 2.0 169 185
- 0.438 1 2 cbr 1000 ------- 2 1.0 2.0 169 185
r 0.4388 1 2 cbr 1000 ------- 2 1.0 2.0 164 180
+ 0.44 1 2 cbr 1000 ------- 2 1.0 2.0 170 186
- 0.44 1 2 cbr 1000 ------- 2 1.0 2.0 170 186
r 0.440464 2 1 ack 40 ------- 1 3.0 0.0 5 174
+ 0.440464 1 0 ack 40 ------- 1 3.0 0.0 5 174
- 0.440464 1 0 ack 40 ------- 1 3.0 0.0 5 174
r 0.4408 1 2 cbr 1000 ------- 2 1.0 2.0 165 181
r 0.441552 2 1 ack 40 ------- 1 3.0 0.0 6 175
+ 0.441552 1 0 ack 40 ------- 1 3.0 0.0 6 175
- 0.441552 1 0 ack 40 ------- 1 3.0 0.0 6 175
+ 0.442 1 2 cbr 1000 ------- 2 1.0 2.0 171 187
- 0.442 1 2 cbr 1000 ------- 2 1.0 2.0 171 187
r 0.4428 1 2 cbr 1000 ------- 2 1.0 2.0 166 182
r 0.443152 2 1 ack 40 ------- 1 3.0 0.0 7 177
+ 0.443152 1 0 ack 40 ------- 1 3.0 0.0 7 177