+ 0.1 1 2 cbr 1000 ------- 2 1.0 2.0 0 0
- 0.1 1 2 cbr 1000 ------- 2 1.0 2.0 0 0
+ 0.102 1 2 cbr 1000 ------- 2 1.0 2.0 1 1
- 0.102 1 2 cbr 1000 ------- 2 1.0 2.0 1 1
+ 0.104 1 2 cbr 1000 ------- 2 1.0 2.0 2 2
- 0.104 1 2 cbr 1000 ------- 2 1.0 2.0 2 2
+ 0.106 1 2 cbr 1000 ------- 2 1.0 2.0 3 3
- 0.106 1 2 cbr 1000 ------- 2 1.0 2.0 3 3
+ 0.108 1 2 cbr 1000 ------- 2 1.0 2.0 4 4
- 0.108 1 2 cbr 1000 ------- 2 1.0 2.0 4 4
+ 0.11 1 2 cbr 1000 ------- 2 1.0 2.0 5 5
- 0.11 1 2 cbr 1000 ------- 2 1.0 2.0 5 5
r 0.1108 1 2 cbr 1000 ------- 2 1.0 2.0 0 0
+ 0.112 1 2 cbr 1000 ------- 2 1.0 2.0 6 6
- 0.112 1 2 cbr 1000 ------- 2 1.0 2.0 6 6
r 0.1128 1 2 cbr 1000 ------- 2 1.0 2.0 1 1
+ 0.114 1 2 cbr 1000 ------- 2 1.0 2.0 7 7
- 0.114 1 2 cbr 1000 ------- 2 1.0 2.0 7 7
r 0.1148 1 2 cbr 1000 ------- 2 1.0 2.0 2 2
+ 0.116 1 2 cbr 1000 ------- 2 1.0 2.0 8 8
- 0.116 1 2 cbr 1000 ------- 2 1.0 2.0 8 8
r 0.1168 1 2 cbr 1000 ------- 2 1.0 2.0 3 3
+ 0.118 1 2 cbr 1000 ------- 2 1.0 2.0 9 9
- 0.118 1 2 cbr 1000 ------- 2 1.0 2.0 9 9
r 0.1188 1 2 cbr 1000 ------- 2 1.0 2.0 4 4
+ 0.12 1 2 cbr 1000 ------- 2 1.0 2.0 10 10
- 0.12 1 2 cbr 1000 ------- 2 1.0 2.0 10 10
r 0.1208 1 2 cbr 1000 ------- 2 1.0 2.0 5 5
+ 0.122 1 2 cbr 1000 ------- 2 1.0 2.0 11 11
- 0.122 1 2 cbr 1000 ------- 2 1.0 2.0 11 11
r 0.1228 1 2 cbr 1000 ------- 2 1.0 2.0 6 6
+ 0.124 1 2 cbr 1000 ------- 2 1.0 2.0 12 12
- 0.124 1 2 cbr 1000 ------- 2 1.0 2.0 12 12
r 0.1248 1 2 cbr 1000 ------- 2 1.0 2.0 7 7
+ 0.126 1 2 cbr 1000 ------- 2 1.0 2.0 13 13
- 0.126 1 2 cbr 1000 ------- 2 1.0 2.0 13 13
r 0.1268 1 2 cbr 1000 ------- 2 1.0 2.0 8 8
+ 0.128 1 2 cbr 1000 ------- 2 1.0 2.0 14 14
- 0.128 1 2 cbr 1000 ------- 2 1.0 2.0 14 14
r 0.1288 1 2 cbr 1000 ------- 2 1.0 2.0 9 9
+ 0.13 1 2 cbr 1000 ------- 2 1.0 2.0 15 15
- 0.13 1 2 cbr 1000 ------- 2 1.0 2.0 15 15
r 0.1308 1 2 cbr 1000 ------- 2 1.0 2.0 10 10
+ 0.132 1 2 cbr 1000 ------- 2 1.0 2.0 16 16
- 0.132 1 2 cbr 1000 ------- 2 1.0 2.0 16 16
r 0.1328 1 2 cbr 1000 ------- 2 1.0 2.0 11 11
+ 0.134 1 2 cbr 1000 ------- 2 1.0 2.0 17 17
- 0.134 1 2 cbr 1000 ------- 2 1.0 2.0 17 17
r 0.1348 1 2 cbr 1000 ------- 2 1.0 2.0 12 12
+ 0.136 1 2 cbr 1000 ------- 2 1.0 2.0 18 18
- 0.136 1 2 cbr 1000 ------- 2 1.0 2.0 18 18
r 0.1368 1 2 cbr 1000 ------- 2 1.0 2.0 13 13
+ 0.138 1 2 cbr 1000 ------- 2 1.0 2.0 19 19
- 0.138 1 2 cbr 1000 ------- 2 1.0 2.0 19 19
r 0.1388 1 2 cbr 1000 ------- 2 1.0 2.0 14 14
+ 0.14 1 2 cbr 1000 ------- 2 1.0 2.0 20 20
- 0.14 1 2 cbr 1000 ------- 2 1.0 2.0 20 20
r 0.1408 1 2 cbr 1000 ------- 2 1.0 2.0 15 15
+ 0.142 1 2 cbr 1000 ------- 2 1.0 2.0 21 21
- 0.142 1 2 cbr 1000 ------- 2 1.0 2.0 21 21
r 0.1428 1 2 cbr 1000 ------- 2 1.0 2.0 16 16
+ 0.144 1 2 cbr 1000 ------- 2 1.0 2.0 22 22
- 0.144 1 2 cbr 1000 ------- 2 1.0 2.0 22 22
r 0.1448 1 2 cbr 1000 ------- 2 1.0 2.0 17 17
+ 0.146 1 2 cbr 1000 ------- 2 1.0 2.0 23 23
- 0.146 1 2 cbr 1000 ------- 2 1.0 2.0 23 23
r 0.1468 1 2 cbr 1000 ------- 2 1.0 2.0 18 18
+ 0.148 1 2 cbr 1000 ------- 2 1.0 2.0 24 24
- 0.148 1 2 cbr 1000 ------- 2 1.0 2.0 24 24
r 0.1488 1 2 cbr 1000 ------- 2 1.0 2.0 19 19
+ 0.15 1 2 cbr 1000 ------- 2 1.0 2.0 25 25
- 0.15 1 2 cbr 1000 ------- 2 1.0 2.0 25 25
r 0.1508 1 2 cbr 1000 ------- 2 1.0 2.0 20 20
+ 0.152 1 2 cbr 1000 ------- 2 1.0 2.0 26 26
- 0.152 1 2 cbr 1000 ------- 2 1.0 2.0 26 26
r 0.1528 1 2 cbr 1000 ------- 2 1.0 2.0 21 21
+ 0.154 1 2 cbr 1000 ------- 2 1.0 2.0 27 27
- 0.154 1 2 cbr 1000 ------- 2 1.0 2.0 27 27
r 0.1548 1 2 cbr 1000 ------- 2 1.0 2.0 22 22
+ 0.156 1 2 cbr 1000 ------- 2 1.0 2.0 28 28
- 0.156 1 2 cbr 1000 ------- 2 1.0 2.0 28 28
r 0.1568 1 2 cbr 1000 ------- 2 1.0 2.0 23 23
+ 0.158 1 2 cbr 1000 ------- 2 1.0 2.0 29 29
- 0.158 1 2 cbr 1000 ------- 2 1.0 2.0 29 29
r 0.1588 1 2 cbr 1000 ------- 2 1.0 2.0 24 24
+ 0.16 1 2 cbr 1000 ------- 2 1.0 2.0 30 30
- 0.16 1 2 cbr 1000 ------- 2 1.0 2.0 30 30
r 0.1608 1 2 cbr 1000 ------- 2 1.0 2.0 25 25
+ 0.162 1 2 cbr 1000 ------- 2 1.0 2.0 31 31
- 0.162 1 2 cbr 1000 ------- 2 1.0 2.0 31 31
r 0.1628 1 2 cbr 1000 ------- 2 1.0 2.0 26 26
+ 0.164 1 2 cbr 1000 ------- 2 1.0 2.0 32 32
- 0.164 1 2 cbr 1000 ------- 2 1.0 2.0 32 32
r 0.1648 1 2 cbr 1000 ------- 2 1.0 2.0 27 27
+ 0.166 1 2 cbr 1000 ------- 2 1.0 2.0 33 33
- 0.166 1 2 cbr 1000 ------- 2 1.0 2.0 33 33
r 0.1668 1 2 cbr 1000 ------- 2 1.0 2.0 28 28
+ 0.168 1 2 cbr 1000 ------- 2 1.0 2.0 34 34
- 0.168 1 2 cbr 1000 ------- 2 1.0 2.0 34 34
r 0.1688 1 2 cbr 1000 ------- 2 1.0 2.0 29 29
+ 0.17 1 2 cbr 1000 ------- 2 1.0 2.0 35 35
- 0.17 1 2 cbr 1000 ------- 2 1.0 2.0 35 35
r 0.1708 1 2 cbr 1000 ------- 2 1.0 2.0 30 30
+ 0.172 1 2 cbr 1000 ------- 2 1.0 2.0 36 36
- 0.172 1 2 cbr 1000 ------- 2 1.0 2.0 36 36
r 0.1728 1 2 cbr 1000 ------- 2 1.0 2.0 31 31
+ 0.174 1 2 cbr 1000 ------- 2 1.0 2.0 37 37
- 0.174 1 2 cbr 1000 ------- 2 1.0 2.0 37 37
r 0.1748 1 2 cbr 1000 ------- 2 1.0 2.0 32 32
+ 0.176 1 2 cbr 1000 ------- 2 1.0 2.0 38 38
- 0.176 1 2 cbr 1000 ------- 2 1.0 2.0 38 38
r 0.1768 1 2 cbr 1000 ------- 2 1.0 2.0 33 33
+ 0.178 1 2 cbr 1000 ------- 2 1.0 2.0 39 39
- 0.178 1 2 cbr 1000 ------- 2 1.0 2.0 39 39
r 0.1788 1 2 cbr 1000 ------- 2 1.0 2.0 34 34
+ 0.18 1 2 cbr 1000 ------- 2 1.0 2.0 40 40
- 0.18 1 2 cbr 1000 ------- 2 1.0 2.0 40 40
r 0.1808 1 2 cbr 1000 ------- 2 1.0 2.0 35 35
+ 0.182 1 2 cbr 1000 ------- 2 1.0 2.0 41 41
- 0.182 1 2 cbr 1000 ------- 2 1.0 2.0 41 41
r 0.1828 1 2 cbr 1000 ------- 2 1.0 2.0 36 36
+ 0.184 1 2 cbr 1000 ------- 2 1.0 2.0 42 42
- 0.184 1 2 cbr 1000 ------- 2 1.0 2.0 42 42
r 0.1848 1 2 cbr 1000 ------- 2 1.0 2.0 37 37
+ 0.186 1 2 cbr 1000 ------- 2 1.0 2.0 43 43
- 0.186 1 2 cbr 1000 ------- 2 1.0 2.0 43 43
r 0.1868 1 2 cbr 1000 ------- 2 1.0 2.0 38 38
+ 0.188 1 2 cbr 1000 ------- 2 1.0 2.0 44 44
- 0.188 1 2 cbr 1000 ------- 2 1.0 2.0 44 44
r 0.1888 1 2 cbr 1000 ------- 2 1.0 2.0 39 39
+ 0.19 1 2 cbr 1000 ------- 2 1.0 2.0 45 45
- 0.19 1 2 cbr 1000 ------- 2 1.0 2.0 45 45
r 0.1908 1 2 cbr 1000 ------- 2 1.0 2.0 40 40
+ 0.192 1 2 cbr 1000 ------- 2 1.0 2.0 46 46
- 0.192 1 2 cbr 1000 ------- 2 1.0 2.0 46 46
r 0.1928 1 2 cbr 1000 ------- 2 1.0 2.0 41 41
+ 0.194 1 2 cbr 1000 ------- 2 1.0 2.0 47 47
- 0.194 1 2 cbr 1000 ------- 2 1.0 2.0 47 47
r 0.1948 1 2 cbr 1000 ------- 2 1.0 2.0 42 42
+ 0.196 1 2 cbr 1000 ------- 2 1.0 2.0 48 48
- 0.196 1 2 cbr 1000 ------- 2 1.0 2.0 48 48
r 0.1968 1 2 cbr 1000 ------- 2 1.0 2.0 43 43
+ 0.198 1 2 cbr 1000 ------- 2 1.0 2.0 49 49
- 0.198 1 2 cbr 1000 ------- 2 1.0 2.0 49 49
r 0.1988 1 2 cbr 1000 ------- 2 1.0 2.0 44 44
+ 0.2 0 1 tcp 40 ------- 1 0.0 3.0 0 50
- 0.2 0 1 tcp 40 ------- 1 0.0 3.0 0 50
+ 0.2 1 2 cbr 1000 ------- 2 1.0 2.0 50 51
- 0.2 1 2 cbr 1000 ------- 2 1.0 2.0 50 51
r 0.2008 1 2 cbr 1000 ------- 2 1.0 2.0 45 45
+ 0.202 1 2 cbr 1000 ------- 2 1.0 2.0 51 52
- 0.202 1 2 cbr 1000 ------- 2 1.0 2.0 51 52
r 0.2028 1 2 cbr 1000 ------- 2 1.0 2.0 46 46
+ 0.204 1 2 cbr 1000 ------- 2 1.0 2.0 52 53
- 0.204 1 2 cbr 1000 ------- 2 1.0 2.0 52 53
r 0.2048 1 2 cbr 1000 ------- 2 1.0 2.0 47 47
+ 0.206 1 2 cbr 1000 ------- 2 1.0 2.0 53 54
- 0.206 1 2 cbr 1000 ------- 2 1.0 2.0 53 54
r 0.2068 1 2 cbr 1000 ------- 2 1.0 2.0 48 48
+ 0.208 1 2 cbr 1000 ------- 2 1.0 2.0 54 55
- 0.208 1 2 cbr 1000 ------- 2 1.0 2.0 54 55
r 0.2088 1 2 cbr 1000 ------- 2 1.0 2.0 49 49
+ 0.21 1 2 cbr 1000 ------- 2 1.0 2.0 55 56
- 0.21 1 2 cbr 1000 ------- 2 1.0 2.0 55 56
r 0.210032 0 1 tcp 40 ------- 1 0.0 3.0 0 50
+ 0.210032 1 2 tcp 40 ------- 1 0.0 3.0 0 50
r 0.2108 1 2 cbr 1000 ------- 2 1.0 2.0 50 51
- 0.2108 1 2 tcp 40 ------- 1 0.0 3.0 0 50
+ 0.212 1 2 cbr 1000 ------- 2 1.0 2.0 56 57
- 0.212 1 2 cbr 1000 ------- 2 1.0 2.0 56 57
r 0.2128 1 2 cbr 1000 ------- 2 1.0 2.0 51 52
+ 0.214 1 2 cbr 1000 ------- 2 1.0 2.0 57 58
- 0.214 1 2 cbr 1000 ------- 2 1.0 2.0 57 58
r 0.2148 1 2 cbr 1000 ------- 2 1.0 2.0 52 53
+ 0.216 1 2 cbr 1000 ------- 2 1.0 2.0 58 59
- 0.216 1 2 cbr 1000 ------- 2 1.0 2.0 58 59
r 0.2168 1 2 cbr 1000 ------- 2 1.0 2.0 53 54
+ 0.218 1 2 cbr 1000 ------- 2 1.0 2.0 59 60
- 0.218 1 2 cbr 1000 ------- 2 1.0 2.0 59 60
r 0.2188 1 2 cbr 1000 ------- 2 1.0 2.0 54 55
+ 0.22 1 2 cbr 1000 ------- 2 1.0 2.0 60 61
- 0.22 1 2 cbr 1000 ------- 2 1.0 2.0 60 61
r 0.2208 1 2 cbr 1000 ------- 2 1.0 2.0 55 56
r 0.220832 1 2 tcp 40 ------- 1 0.0 3.0 0 50
+ 0.220832 2 3 tcp 40 ------- 1 0.0 3.0 0 50
- 0.220832 2 3 tcp 40 ------- 1 0.0 3.0 0 50
+ 0.222 1 2 cbr 1000 ------- 2 1.0 2.0 61 62
- 0.222 1 2 cbr 1000 ------- 2 1.0 2.0 61 62
r 0.2228 1 2 cbr 1000 ------- 2 1.0 2.0 56 57
+ 0.224 1 2 cbr 1000 ------- 2 1.0 2.0 62 63
- 0.224 1 2 cbr 1000 ------- 2 1.0 2.0 62 63
r 0.2248 1 2 cbr 1000 ------- 2 1.0 2.0 57 58
+ 0.226 1 2 cbr 1000 ------- 2 1.0 2.0 63 64
- 0.226 1 2 cbr 1000 ------- 2 1.0 2.0 63 64
r 0.2268 1 2 cbr 1000 ------- 2 1.0 2.0 58 59
+ 0.228 1 2 cbr 1000 ------- 2 1.0 2.0 64 65
- 0.228 1 2 cbr 1000 ------- 2 1.0 2.0 64 65
r 0.2288 1 2 cbr 1000 ------- 2 1.0 2.0 59 60
+ 0.23 1 2 cbr 1000 ------- 2 1.0 2.0 65 66
- 0.23 1 2 cbr 1000 ------- 2 1.0 2.0 65 66
r 0.2308 1 2 cbr 1000 ------- 2 1.0 2.0 60 61
r 0.230864 2 3 tcp 40 ------- 1 0.0 3.0 0 50
+ 0.230864 3 2 ack 40 ------- 1 3.0 0.0 0 67
- 0.230864 3 2 ack 40 ------- 1 3.0 0.0 0 67
+ 0.232 1 2 cbr 1000 ------- 2 1.0 2.0 66 68
- 0.232 1 2 cbr 1000 ------- 2 1.0 2.0 66 68
r 0.2328 1 2 cbr 1000 ------- 2 1.0 2.0 61 62
+ 0.234 1 2 cbr 1000 ------- 2 1.0 2.0 67 69
- 0.234 1 2 cbr 1000 ------- 2 1.0 2.0 67 69
r 0.2348 1 2 cbr 1000 ------- 2 1.0 2.0 62 63
+ 0.236 1 2 cbr 1000 ------- 2 1.0 2.0 68 70
- 0.236 1 2 cbr 1000 ------- 2 1.0 2.0 68 70
r 0.2368 1 2 cbr 1000 ------- 2 1.0 2.0 63 64
+ 0.238 1 2 cbr 1000 ------- 2 1.0 2.0 69 71
- 0.238 1 2 cbr 1000 ------- 2 1.0 2.0 69 71
r 0.2388 1 2 cbr 1000 ------- 2 1.0 2.0 64 65
+ 0.24 1 2 cbr 1000 ------- 2 1.0 2.0 70 72
- 0.24 1 2 cbr 1000 ------- 2 1.0 2.0 70 72
r 0.2408 1 2 cbr 1000 ------- 2 1.0 2.0 65 66
r 0.240896 3 2 ack 40 ------- 1 3.0 0.0 0 67
+ 0.240896 2 1 ack 40 ------- 1 3.0 0.0 0 67
- 0.240896 2 1 ack 40 ------- 1 3.0 0.0 0 67
+ 0.242 1 2 cbr 1000 ------- 2 1.0 2.0 71 73
- 0.242 1 2 cbr 1000 ------- 2 1.0 2.0 71 73
r 0.2428 1 2 cbr 1000 ------- 2 1.0 2.0 66 68
+ 0.244 1 2 cbr 1000 ------- 2 1.0 2.0 72 74
- 0.244 1 2 cbr 1000 ------- 2 1.0 2.0 72 74
r 0.2448 1 2 cbr 1000 ------- 2 1.0 2.0 67 69
+ 0.246 1 2 cbr 1000 ------- 2 1.0 2.0 73 75
- 0.246 1 2 cbr 1000 ------- 2 1.0 2.0 73 75
r 0.2468 1 2 cbr 1000 ------- 2 1.0 2.0 68 70
+ 0.248 1 2 cbr 1000 ------- 2 1.0 2.0 74 76
- 0.248 1 2 cbr 1000 ------- 2 1.0 2.0 74 76
r 0.2488 1 2 cbr 1000 ------- 2 1.0 2.0 69 71
+ 0.25 1 2 cbr 1000 ------- 2 1.0 2.0 75 77
- 0.25 1 2 cbr 1000 ------- 2 1.0 2.0 75 77
r 0.2508 1 2 cbr 1000 ------- 2 1.0 2.0 70 72
r 0.250928 2 1 ack 40 ------- 1 3.0 0.0 0 67
+ 0.250928 1 0 ack 40 ------- 1 3.0 0.0 0 67
- 0.250928 1 0 ack 40 ------- 1 3.0 0.0 0 67
+ 0.252 1 2 cbr 1000 ------- 2 1.0 2.0 76 78
- 0.252 1 2 cbr 1000 ------- 2 1.0 2.0 76 78
r 0.2528 1 2 cbr 1000 ------- 2 1.0 2.0 71 73
+ 0.254 1 2 cbr 1000 ------- 2 1.0 2.0 77 79
- 0.254 1 2 cbr 1000 ------- 2 1.0 2.0 77 79
r 0.2548 1 2 cbr 1000 ------- 2 1.0 2.0 72 74
+ 0.256 1 2 cbr 1000 ------- 2 1.0 2.0 78 80
- 0.256 1 2 cbr 1000 ------- 2 1.0 2.0 78 80
r 0.2568 1 2 cbr 1000 ------- 2 1.0 2.0 73 75
+ 0.258 1 2 cbr 1000 ------- 2 1.0 2.0 79 81
- 0.258 1 2 cbr 1000 ------- 2 1.0 2.0 79 81
r 0.2588 1 2 cbr 1000 ------- 2 1.0 2.0 74 76
+ 0.26 1 2 cbr 1000 ------- 2 1.0 2.0 80 82
- 0.26 1 2 cbr 1000 ------- 2 1.0 2.0 80 82
r 0.2608 1 2 cbr 1000 ------- 2 1.0 2.0 75 77
r 0.26096 1 0 ack 40 ------- 1 3.0 0.0 0 67
+ 0.26096 0 1 tcp 1040 ------- 1 0.0 3.0 1 83
- 0.26096 0 1 tcp 1040 ------- 1 0.0 3.0 1 83
+ 0.26096 0 1 tcp 1040 ------- 1 0.0 3.0 2 84
- 0.261792 0 1 tcp 1040 ------- 1 0.0 3.0 2 84
+ 0.262 1 2 cbr 1000 ------- 2 1.0 2.0 81 85
- 0.262 1 2 cbr 1000 ------- 2 1.0 2.0 81 85
r 0.2628 1 2 cbr 1000 ------- 2 1.0 2.0 76 78
+ 0.264 1 2 cbr 1000 ------- 2 1.0 2.0 82 86
- 0.264 1 2 cbr 1000 ------- 2 1.0 2.0 82 86
r 0.2648 1 2 cbr 1000 ------- 2 1.0 2.0 77 79
+ 0.266 1 2 cbr 1000 ------- 2 1.0 2.0 83 87
- 0.266 1 2 cbr 1000 ------- 2 1.0 2.0 83 87
r 0.2668 1 2 cbr 1000 ------- 2 1.0 2.0 78 80
+ 0.268 1 2 cbr 1000 ------- 2 1.0 2.0 84 88
- 0.268 1 2 cbr 1000 ------- 2 1.0 2.0 84 88
r 0.2688 1 2 cbr 1000 ------- 2 1.0 2.0 79 81
+ 0.27 1 2 cbr 1000 ------- 2 1.0 2.0 85 89
- 0.27 1 2 cbr 1000 ------- 2 1.0 2.0 85 89
r 0.2708 1 2 cbr 1000 ------- 2 1.0 2.0 80 82
r 0.271792 0 1 tcp 1040 ------- 1 0.0 3.0 1 83
+ 0.271792 1 2 tcp 1040 ------- 1 0.0 3.0 1 83
- 0.271792 1 2 tcp 1040 ------- 1 0.0 3.0 1 83
+ 0.272 1 2 cbr 1000 ------- 2 1.0 2.0 86 90
r 0.272624 0 1 tcp 1040 ------- 1 0.0 3.0 2 84
+ 0.272624 1 2 tcp 1040 ------- 1 0.0 3.0 2 84
- 0.272624 1 2 cbr 1000 ------- 2 1.0 2.0 86 90
r 0.2728 1 2 cbr 1000 ------- 2 1.0 2.0 81 85
- 0.273424 1 2 tcp 1040 ------- 1 0.0 3.0 2 84
+ 0.274 1 2 cbr 1000 ------- 2 1.0 2.0 87 91
- 0.274256 1 2 cbr 1000 ------- 2 1.0 2.0 87 91
r 0.2748 1 2 cbr 1000 ------- 2 1.0 2.0 82 86
+ 0.276 1 2 cbr 1000 ------- 2 1.0 2.0 88 92
- 0.276 1 2 cbr 1000 ------- 2 1.0 2.0 88 92
r 0.2768 1 2 cbr 1000 ------- 2 1.0 2.0 83 87
+ 0.278 1 2 cbr 1000 ------- 2 1.0 2.0 89 93
- 0.278 1 2 cbr 1000 ------- 2 1.0 2.0 89 93
r 0.2788 1 2 cbr 1000 ------- 2 1.0 2.0 84 88
+ 0.28 1 2 cbr 1000 ------- 2 1.0 2.0 90 94
- 0.28 1 2 cbr 1000 ------- 2 1.0 2.0 90 94
r 0.2808 1 2 cbr 1000 ------- 2 1.0 2.0 85 89
+ 0.282 1 2 cbr 1000 ------- 2 1.0 2.0 91 95
- 0.282 1 2 cbr 1000 ------- 2 1.0 2.0 91 95
r 0.282624 1 2 tcp 1040 ------- 1 0.0 3.0 1 83
+ 0.282624 2 3 tcp 1040 ------- 1 0.0 3.0 1 83
- 0.282624 2 3 tcp 1040 ------- 1 0.0 3.0 1 83
r 0.283424 1 2 cbr 1000 ------- 2 1.0 2.0 86 90
+ 0.284 1 2 cbr 1000 ------- 2 1.0 2.0 92 96
- 0.284 1 2 cbr 1000 ------- 2 1.0 2.0 92 96
r 0.284256 1 2 tcp 1040 ------- 1 0.0 3.0 2 84
+ 0.284256 2 3 tcp 1040 ------- 1 0.0 3.0 2 84
- 0.284256 2 3 tcp 1040 ------- 1 0.0 3.0 2 84
r 0.285056 1 2 cbr 1000 ------- 2 1.0 2.0 87 91
+ 0.286 1 2 cbr 1000 ------- 2 1.0 2.0 93 97
- 0.286 1 2 cbr 1000 ------- 2 1.0 2.0 93 97
r 0.2868 1 2 cbr 1000 ------- 2 1.0 2.0 88 92
+ 0.288 1 2 cbr 1000 ------- 2 1.0 2.0 94 98
- 0.288 1 2 cbr 1000 ------- 2 1.0 2.0 94 98
r 0.2888 1 2 cbr 1000 ------- 2 1.0 2.0 89 93
+ 0.29 1 2 cbr 1000 ------- 2 1.0 2.0 95 99
- 0.29 1 2 cbr 1000 ------- 2 1.0 2.0 95 99
r 0.2908 1 2 cbr 1000 ------- 2 1.0 2.0 90 94
+ 0.292 1 2 cbr 1000 ------- 2 1.0 2.0 96 100
- 0.292 1 2 cbr 1000 ------- 2 1.0 2.0 96 100
r 0.2928 1 2 cbr 1000 ------- 2 1.0 2.0 91 95
r 0.293456 2 3 tcp 1040 ------- 1 0.0 3.0 1 83
+ 0.293456 3 2 ack 40 ------- 1 3.0 0.0 1 101
- 0.293456 3 2 ack 40 ------- 1 3.0 0.0 1 101
+ 0.294 1 2 cbr 1000 ------- 2 1.0 2.0 97 102
- 0.294 1 2 cbr 1000 ------- 2 1.0 2.0 97 102
r 0.2948 1 2 cbr 1000 ------- 2 1.0 2.0 92 96
r 0.295088 2 3 tcp 1040 ------- 1 0.0 3.0 2 84
+ 0.295088 3 2 ack 40 ------- 1 3.0 0.0 2 103
- 0.295088 3 2 ack 40 ------- 1 3.0 0.0 2 103
+ 0.296 1 2 cbr 1000 ------- 2 1.0 2.0 98 104
- 0.296 1 2 cbr 1000 ------- 2 1.0 2.0 98 104
r 0.2968 1 2 cbr 1000 ------- 2 1.0 2.0 93 97
+ 0.298 1 2 cbr 1000 ------- 2 1.0 2.0 99 105
- 0.298 1 2 cbr 1000 ------- 2 1.0 2.0 99 105
r 0.2988 1 2 cbr 1000 ------- 2 1.0 2.0 94 98
+ 0.3 1 2 cbr 1000 ------- 2 1.0 2.0 100 106
- 0.3 1 2 cbr 1000 ------- 2 1.0 2.0 100 106
r 0.3008 1 2 cbr 1000 ------- 2 1.0 2.0 95 99
+ 0.302 1 2 cbr 1000 ------- 2 1.0 2.0 101 107
- 0.302 1 2 cbr 1000 ------- 2 1.0 2.0 101 107
r 0.3028 1 2 cbr 1000 ------- 2 1.0 2.0 96 100
r 0.303488 3 2 ack 40 ------- 1 3.0 0.0 1 101
+ 0.303488 2 1 ack 40 ------- 1 3.0 0.0 1 101
- 0.303488 2 1 ack 40 ------- 1 3.0 0.0 1 101
+ 0.304 1 2 cbr 1000 ------- 2 1.0 2.0 102 108
- 0.304 1 2 cbr 1000 ------- 2 1.0 2.0 102 108
r 0.3048 1 2 cbr 1000 ------- 2 1.0 2.0 97 102
r 0.30512 3 2 ack 40 ------- 1 3.0 0.0 2 103
+ 0.30512 2 1 ack 40 ------- 1 3.0 0.0 2 103
- 0.30512 2 1 ack 40 ------- 1 3.0 0.0 2 103
+ 0.306 1 2 cbr 1000 ------- 2 1.0 2.0 103 109
- 0.306 1 2 cbr 1000 ------- 2 1.0 2.0 103 109
r 0.3068 1 2 cbr 1000 ------- 2 1.0 2.0 98 104
+ 0.308 1 2 cbr 1000 ------- 2 1.0 2.0 104 110
- 0.308 1 2 cbr 1000 ------- 2 1.0 2.0 104 110
r 0.3088 1 2 cbr 1000 ------- 2 1.0 2.0 99 105
+ 0.31 1 2 cbr 1000 ------- 2 1.0 2.0 105 111
- 0.31 1 2 cbr 1000 ------- 2 1.0 2.0 105 111
r 0.3108 1 2 cbr 1000 ------- 2 1.0 2.0 100 106
+ 0.312 1 2 cbr 1000 ------- 2 1.0 2.0 106 112
- 0.312 1 2 cbr 1000 ------- 2 1.0 2.0 106 112
r 0.3128 1 2 cbr 1000 ------- 2 1.0 2.0 101 107
r 0.31352 2 1 ack 40 ------- 1 3.0 0.0 1 101
+ 0.31352 1 0 ack 40 ------- 1 3.0 0.0 1 101
- 0.31352 1 0 ack 40 ------- 1 3.0 0.0 1 101
+ 0.314 1 2 cbr 1000 ------- 2 1.0 2.0 107 113
- 0.314 1 2 cbr 1000 ------- 2 1.0 2.0 107 113
r 0.3148 1 2 cbr 1000 ------- 2 1.0 2.0 102 108
r 0.315152 2 1 ack 40 ------- 1 3.0 0.0 2 103
+ 0.315152 1 0 ack 40 ------- 1 3.0 0.0 2 103
- 0.315152 1 0 ack 40 ------- 1 3.0 0.0 2 103
+ 0.316 1 2 cbr 1000 ------- 2 1.0 2.0 108 114
- 0.316 1 2 cbr 1000 ------- 2 1.0 2.0 108 114
r 0.3168 1 2 cbr 1000 ------- 2 1.0 2.0 103 109
+ 0.318 1 2 cbr 1000 ------- 2 1.0 2.0 109 115
- 0.318 1 2 cbr 1000 ------- 2 1.0 2.0 109 115
r 0.3188 1 2 cbr 1000 ------- 2 1.0 2.0 104 110
+ 0.32 1 2 cbr 1000 ------- 2 1.0 2.0 110 116
- 0.32 1 2 cbr 1000 ------- 2 1.0 2.0 110 116
r 0.3208 1 2 cbr 1000 ------- 2 1.0 2.0 105 111
+ 0.322 1 2 cbr 1000 ------- 2 1.0 2.0 111 117
- 0.322 1 2 cbr 1000 ------- 2 1.0 2.0 111 117
r 0.3228 1 2 cbr 1000 ------- 2 1.0 2.0 106 112
r 0.323552 1 0 ack 40 ------- 1 3.0 0.0 1 101
+ 0.323552 0 1 tcp 1040 ------- 1 0.0 3.0 3 118
- 0.323552 0 1 tcp 1040 ------- 1 0.0 3.0 3 118
+ 0.323552 0 1 tcp 1040 ------- 1 0.0 3.0 4 119
+ 0.324 1 2 cbr 1000 ------- 2 1.0 2.0 112 120
- 0.324 1 2 cbr 1000 ------- 2 1.0 2.0 112 120
- 0.324384 0 1 tcp 1040 ------- 1 0.0 3.0 4 119
r 0.3248 1 2 cbr 1000 ------- 2 1.0 2.0 107 113
r 0.325184 1 0 ack 40 ------- 1 3.0 0.0 2 103
+ 0.325184 0 1 tcp 1040 ------- 1 0.0 3.0 5 121
+ 0.325184 0 1 tcp 1040 ------- 1 0.0 3.0 6 122
- 0.325216 0 1 tcp 1040 ------- 1 0.0 3.0 5 121
+ 0.326 1 2 cbr 1000 ------- 2 1.0 2.0 113 123
- 0.326 1 2 cbr 1000 ------- 2 1.0 2.0 113 123
- 0.326048 0 1 tcp 1040 ------- 1 0.0 3.0 6 122
r 0.3268 1 2 cbr 1000 ------- 2 1.0 2.0 108 114
+ 0.328 1 2 cbr 1000 ------- 2 1.0 2.0 114 124
- 0.328 1 2 cbr 1000 ------- 2 1.0 2.0 114 124
r 0.3288 1 2 cbr 1000 ------- 2 1.0 2.0 109 115
+ 0.33 1 2 cbr 1000 ------- 2 1.0 2.0 115 125
- 0.33 1 2 cbr 1000 ------- 2 1.0 2.0 115 125
r 0.3308 1 2 cbr 1000 ------- 2 1.0 2.0 110 116
+ 0.332 1 2 cbr 1000 ------- 2 1.0 2.0 116 126
- 0.332 1 2 cbr 1000 ------- 2 1.0 2.0 116 126
r 0.3328 1 2 cbr 1000 ------- 2 1.0 2.0 111 117
+ 0.334 1 2 cbr 1000 ------- 2 1.0 2.0 117 127
- 0.334 1 2 cbr 1000 ------- 2 1.0 2.0 117 127
r 0.334384 0 1 tcp 1040 ------- 1 0.0 3.0 3 118
+ 0.334384 1 2 tcp 1040 ------- 1 0.0 3.0 3 118
r 0.3348 1 2 cbr 1000 ------- 2 1.0 2.0 112 120
- 0.3348 1 2 tcp 1040 ------- 1 0.0 3.0 3 118
r 0.335216 0 1 tcp 1040 ------- 1 0.0 3.0 4 119
+ 0.335216 1 2 tcp 1040 ------- 1 0.0 3.0 4 119
- 0.335632 1 2 tcp 1040 ------- 1 0.0 3.0 4 119
+ 0.336 1 2 cbr 1000 ------- 2 1.0 2.0 118 128
r 0.336048 0 1 tcp 1040 ------- 1 0.0 3.0 5 121
+ 0.336048 1 2 tcp 1040 ------- 1 0.0 3.0 5 121
- 0.336464 1 2 cbr 1000 ------- 2 1.0 2.0 118 128
r 0.3368 1 2 cbr 1000 ------- 2 1.0 2.0 113 123
r 0.33688 0 1 tcp 1040 ------- 1 0.0 3.0 6 122
+ 0.33688 1 2 tcp 1040 ------- 1 0.0 3.0 6 122
- 0.337264 1 2 tcp 1040 ------- 1 0.0 3.0 5 121
+ 0.338 1 2 cbr 1000 ------- 2 1.0 2.0 119 129
- 0.338096 1 2 tcp 1040 ------- 1 0.0 3.0 6 122
r 0.3388 1 2 cbr 1000 ------- 2 1.0 2.0 114 124
- 0.338928 1 2 cbr 1000 ------- 2 1.0 2.0 119 129
+ 0.34 1 2 cbr 1000 ------- 2 1.0 2.0 120 130
- 0.34 1 2 cbr 1000 ------- 2 1.0 2.0 120 130
r 0.3408 1 2 cbr 1000 ------- 2 1.0 2.0 115 125
+ 0.342 1 2 cbr 1000 ------- 2 1.0 2.0 121 131
- 0.342 1 2 cbr 1000 ------- 2 1.0 2.0 121 131
r 0.3428 1 2 cbr 1000 ------- 2 1.0 2.0 116 126
+ 0.344 1 2 cbr 1000 ------- 2 1.0 2.0 122 132
- 0.344 1 2 cbr 1000 ------- 2 1.0 2.0 122 132
r 0.3448 1 2 cbr 1000 ------- 2 1.0 2.0 117 127
r 0.345632 1 2 tcp 1040 ------- 1 0.0 3.0 3 118
+ 0.345632 2 3 tcp 1040 ------- 1 0.0 3.0 3 118
- 0.345632 2 3 tcp 1040 ------- 1 0.0 3.0 3 118
+ 0.346 1 2 cbr 1000 ------- 2 1.0 2.0 123 133
- 0.346 1 2 cbr 1000 ------- 2 1.0 2.0 123 133
r 0.346464 1 2 tcp 1040 ------- 1 0.0 3.0 4 119
+ 0.346464 2 3 tcp 1040 ------- 1 0.0 3.0 4 119
- 0.346464 2 3 tcp 1040 ------- 1 0.0 3.0 4 119
r 0.347264 1 2 cbr 1000 ------- 2 1.0 2.0 118 128
+ 0.348 1 2 cbr 1000 ------- 2 1.0 2.0 124 134
- 0.348 1 2 cbr 1000 ------- 2 1.0 2.0 124 134
r 0.348096 1 2 tcp 1040 ------- 1 0.0 3.0 5 121
+ 0.348096 2 3 tcp 1040 ------- 1 0.0 3.0 5 121
- 0.348096 2 3 tcp 1040 ------- 1 0.0 3.0 5 121
r 0.348928 1 2 tcp 1040 ------- 1 0.0 3.0 6 122
+ 0.348928 2 3 tcp 1040 ------- 1 0.0 3.0 6 122
- 0.348928 2 3 tcp 1040 ------- 1 0.0 3.0 6 122
r 0.349728 1 2 cbr 1000 ------- 2 1.0 2.0 119 129
+ 0.35 1 2 cbr 1000 ------- 2 1.0 2.0 125 135
- 0.35 1 2 cbr 1000 ------- 2 1.0 2.0 125 135
r 0.3508 1 2 cbr 1000 ------- 2 1.0 2.0 120 130
+ 0.352 1 2 cbr 1000 ------- 2 1.0 2.0 126 136
- 0.352 1 2 cbr 1000 ------- 2 1.0 2.0 126 136
r 0.3528 1 2 cbr 1000 ------- 2 1.0 2.0 121 131
+ 0.354 1 2 cbr 1000 ------- 2 1.0 2.0 127 137
- 0.354 1 2 cbr 1000 ------- 2 1.0 2.0 127 137
r 0.3548 1 2 cbr 1000 ------- 2 1.0 2.0 122 132
+ 0.356 1 2 cbr 1000 ------- 2 1.0 2.0 128 138
- 0.356 1 2 cbr 1000 ------- 2 1.0 2.0 128 138
r 0.356464 2 3 tcp 1040 ------- 1 0.0 3.0 3 118
+ 0.356464 3 2 ack 40 ------- 1 3.0 0.0 3 139
- 0.356464 3 2 ack 40 ------- 1 3.0 0.0 3 139
r 0.3568 1 2 cbr 1000 ------- 2 1.0 2.0 123 133
r 0.357296 2 3 tcp 1040 ------- 1 0.0 3.0 4 119
+ 0.357296 3 2 ack 40 ------- 1 3.0 0.0 4 140
- 0.357296 3 2 ack 40 ------- 1 3.0 0.0 4 140
+ 0.358 1 2 cbr 1000 ------- 2 1.0 2.0 129 141
- 0.358 1 2 cbr 1000 ------- 2 1.0 2.0 129 141
r 0.3588 1 2 cbr 1000 ------- 2 1.0 2.0 124 134
r 0.358928 2 3 tcp 1040 ------- 1 0.0 3.0 5 121
+ 0.358928 3 2 ack 40 ------- 1 3.0 0.0 5 142
- 0.358928 3 2 ack 40 ------- 1 3.0 0.0 5 142
r 0.35976 2 3 tcp 1040 ------- 1 0.0 3.0 6 122
+ 0.35976 3 2 ack 40 ------- 1 3.0 0.0 6 143
- 0.35976 3 2 ack 40 ------- 1 3.0 0.0 6 143
+ 0.36 1 2 cbr 1000 ------- 2 1.0 2.0 130 144
- 0.36 1 2 cbr 1000 ------- 2 1.0 2.0 130 144
r 0.3608 1 2 cbr 1000 ------- 2 1.0 2.0 125 135
+ 0.362 1 2 cbr 1000 ------- 2 1.0 2.0 131 145
- 0.362 1 2 cbr 1000 ------- 2 1.0 2.0 131 145
r 0.3628 1 2 cbr 1000 ------- 2 1.0 2.0 126 136
+ 0.364 1 2 cbr 1000 ------- 2 1.0 2.0 132 146
- 0.364 1 2 cbr 1000 ------- 2 1.0 2.0 132 146
r 0.3648 1 2 cbr 1000 ------- 2 1.0 2.0 127 137
+ 0.366 1 2 cbr 1000 ------- 2 1.0 2.0 133 147
- 0.366 1 2 cbr 1000 ------- 2 1.0 2.0 133 147
r 0.366496 3 2 ack 40 ------- 1 3.0 0.0 3 139
+ 0.366496 2 1 ack 40 ------- 1 3.0 0.0 3 139
- 0.366496 2 1 ack 40 ------- 1 3.0 0.0 3 139
r 0.3668 1 2 cbr 1000 ------- 2 1.0 2.0 128 138
r 0.367328 3 2 ack 40 ------- 1 3.0 0.0 4 140
+ 0.367328 2 1 ack 40 ------- 1 3.0 0.0 4 140
- 0.367328 2 1 ack 40 ------- 1 3.0 0.0 4 140
+ 0.368 1 2 cbr 1000 ------- 2 1.0 2.0 134 148
- 0.368 1 2 cbr 1000 ------- 2 1.0 2.0 134 148
r 0.3688 1 2 cbr 1000 ------- 2 1.0 2.0 129 141
r 0.36896 3 2 ack 40 ------- 1 3.0 0.0 5 142
+ 0.36896 2 1 ack 40 ------- 1 3.0 0.0 5 142
- 0.36896 2 1 ack 40 ------- 1 3.0 0.0 5 142
r 0.369792 3 2 ack 40 ------- 1 3.0 0.0 6 143
+ 0.369792 2 1 ack 40 ------- 1 3.0 0.0 6 143
- 0.369792 2 1 ack 40 ------- 1 3.0 0.0 6 143
+ 0.37 1 2 cbr 1000 ------- 2 1.0 2.0 135 149
- 0.37 1 2 cbr 1000 ------- 2 1.0 2.0 135 149
r 0.3708 1 2 cbr 1000 ------- 2 1.0 2.0 130 144
+ 0.372 1 2 cbr 1000 ------- 2 1.0 2.0 136 150
- 0.372 1 2 cbr 1000 ------- 2 1.0 2.0 136 150
r 0.3728 1 2 cbr 1000 ------- 2 1.0 2.0 131 145
+ 0.374 1 2 cbr 1000 ------- 2 1.0 2.0 137 151
- 0.374 1 2 cbr 1000 ------- 2 1.0 2.0 137 151
r 0.3748 1 2 cbr 1000 ------- 2 1.0 2.0 132 146
+ 0.376 1 2 cbr 1000 ------- 2 1.0 2.0 138 152
- 0.376 1 2 cbr 1000 ------- 2 1.0 2.0 138 152
r 0.376528 2 1 ack 40 ------- 1 3.0 0.0 3 139
+ 0.376528 1 0 ack 40 ------- 1 3.0 0.0 3 139
- 0.376528 1 0 ack 40 ------- 1 3.0 0.0 3 139
r 0.3768 1 2 cbr 1000 ------- 2 1.0 2.0 133 147
r 0.37736 2 1 ack 40 ------- 1 3.0 0.0 4 140
+ 0.37736 1 0 ack 40 ------- 1 3.0 0.0 4 140
- 0.37736 1 0 ack 40 ------- 1 3.0 0.0 4 140
+ 0.378 1 2 cbr 1000 ------- 2 1.0 2.0 139 153
- 0.378 1 2 cbr 1000 ------- 2 1.0 2.0 139 153
r 0.3788 1 2 cbr 1000 ------- 2 1.0 2.0 134 148
r 0.378992 2 1 ack 40 ------- 1 3.0 0.0 5 142
+ 0.378992 1 0 ack 40 ------- 1 3.0 0.0 5 142
- 0.378992 1 0 ack 40 ------- 1 3.0 0.0 5 142
r 0.379824 2 1 ack 40 ------- 1 3.0 0.0 6 143
+ 0.379824 1 0 ack 40 ------- 1 3.0 0.0 6 143
- 0.379824 1 0 ack 40 ------- 1 3.0 0.0 6 143
+ 0.38 1 2 cbr 1000 ------- 2 1.0 2.0 140 154
- 0.38 1 2 cbr 1000 ------- 2 1.0 2.0 140 154
r 0.3808 1 2 cbr 1000 ------- 2 1.0 2.0 135 149
+ 0.382 1 2 cbr 1000 ------- 2 1.0 2.0 141 155
- 0.382 1 2 cbr 1000 ------- 2 1.0 2.0 141 155
r 0.3828 1 2 cbr 1000 ------- 2 1.0 2.0 136 150
+ 0.384 1 2 cbr 1000 ------- 2 1.0 2.0 142 156
- 0.384 1 2 cbr 1000 ------- 2 1.0 2.0 142 156
r 0.3848 1 2 cbr 1000 ------- 2 1.0 2.0 137 151
+ 0.386 1 2 cbr 1000 ------- 2 1.0 2.0 143 157
- 0.386 1 2 cbr 1000 ------- 2 1.0 2.0 143 157
r 0.38656 1 0 ack 40 ------- 1 3.0 0.0 3 139
+ 0.38656 0 1 tcp 1040 ------- 1 0.0 3.0 7 158
- 0.38656 0 1 tcp 1040 ------- 1 0.0 3.0 7 158
+ 0.38656 0 1 tcp 1040 ------- 1 0.0 3.0 8 159
r 0.3868 1 2 cbr 1000 ------- 2 1.0 2.0 138 152
r 0.387392 1 0 ack 40 ------- 1 3.0 0.0 4 140
+ 0.387392 0 1 tcp 1040 ------- 1 0.0 3.0 9 160
+ 0.387392 0 1 tcp 1040 ------- 1 0.0 3.0 10 161
- 0.387392 0 1 tcp 1040 ------- 1 0.0 3.0 8 159
+ 0.388 1 2 cbr 1000 ------- 2 1.0 2.0 144 162
- 0.388 1 2 cbr 1000 ------- 2 1.0 2.0 144 162
- 0.388224 0 1 tcp 1040 ------- 1 0.0 3.0 9 160
r 0.3888 1 2 cbr 1000 ------- 2 1.0 2.0 139 153
r 0.389024 1 0 ack 40 ------- 1 3.0 0.0 5 142
+ 0.389024 0 1 tcp 1040 ------- 1 0.0 3.0 11 163
+ 0.389024 0 1 tcp 1040 ------- 1 0.0 3.0 12 164
- 0.389056 0 1 tcp 1040 ------- 1 0.0 3.0 10 161
r 0.389856 1 0 ack 40 ------- 1 3.0 0.0 6 143
+ 0.389856 0 1 tcp 1040 ------- 1 0.0 3.0 13 165
+ 0.389856 0 1 tcp 1040 ------- 1 0.0 3.0 14 166
- 0.389888 0 1 tcp 1040 ------- 1 0.0 3.0 11 163
+ 0.39 1 2 cbr 1000 ------- 2 1.0 2.0 145 167
- 0.39 1 2 cbr 1000 ------- 2 1.0 2.0 145 167
- 0.39072 0 1 tcp 1040 ------- 1 0.0 3.0 12 164
r 0.3908 1 2 cbr 1000 ------- 2 1.0 2.0 140 154
- 0.391552 0 1 tcp 1040 ------- 1 0.0 3.0 13 165
+ 0.392 1 2 cbr 1000 ------- 2 1.0 2.0 146 168
- 0.392 1 2 cbr 1000 ------- 2 1.0 2.0 146 168
- 0.392384 0 1 tcp 1040 ------- 1 0.0 3.0 14 166
r 0.3928 1 2 cbr 1000 ------- 2 1.0 2.0 141 155
+ 0.394 1 2 cbr 1000 ------- 2 1.0 2.0 147 169
- 0.394 1 2 cbr 1000 ------- 2 1.0 2.0 147 169
r 0.3948 1 2 cbr 1000 ------- 2 1.0 2.0 142 156
+ 0.396 1 2 cbr 1000 ------- 2 1.0 2.0 148 170
- 0.396 1 2 cbr 1000 ------- 2 1.0 2.0 148 170
r 0.3968 1 2 cbr 1000 ------- 2 1.0 2.0 143 157
r 0.397392 0 1 tcp 1040 ------- 1 0.0 3.0 7 158
+ 0.397392 1 2 tcp 1040 ------- 1 0.0 3.0 7 158
- 0.397392 1 2 tcp 1040 ------- 1 0.0 3.0 7 158
+ 0.398 1 2 cbr 1000 ------- 2 1.0 2.0 149 171
r 0.398224 0 1 tcp 1040 ------- 1 0.0 3.0 8 159
+ 0.398224 1 2 tcp 1040 ------- 1 0.0 3.0 8 159
- 0.398224 1 2 cbr 1000 ------- 2 1.0 2.0 149 171
r 0.3988 1 2 cbr 1000 ------- 2 1.0 2.0 144 162
- 0.399024 1 2 tcp 1040 ------- 1 0.0 3.0 8 159
r 0.399056 0 1 tcp 1040 ------- 1 0.0 3.0 9 160
+ 0.399056 1 2 tcp 1040 ------- 1 0.0 3.0 9 160
- 0.399856 1 2 tcp 1040 ------- 1 0.0 3.0 9 160
r 0.399888 0 1 tcp 1040 ------- 1 0.0 3.0 10 161
+ 0.399888 1 2 tcp 1040 ------- 1 0.0 3.0 10 161
+ 0.4 1 2 cbr 1000 ------- 2 1.0 2.0 150 172
- 0.400688 1 2 tcp 1040 ------- 1 0.0 3.0 10 161
r 0.40072 0 1 tcp 1040 ------- 1 0.0 3.0 11 163
+ 0.40072 1 2 tcp 1040 ------- 1 0.0 3.0 11 163
r 0.4008 1 2 cbr 1000 ------- 2 1.0 2.0 145 167
- 0.40152 1 2 cbr 1000 ------- 2 1.0 2.0 150 172
r 0.401552 0 1 tcp 1040 ------- 1 0.0 3.0 12 164
+ 0.401552 1 2 tcp 1040 ------- 1 0.0 3.0 12 164
+ 0.402 1 2 cbr 1000 ------- 2 1.0 2.0 151 173
- 0.40232 1 2 tcp 1040 ------- 1 0.0 3.0 11 163
r 0.402384 0 1 tcp 1040 ------- 1 0.0 3.0 13 165
+ 0.402384 1 2 tcp 1040 ------- 1 0.0 3.0 13 165
r 0.4028 1 2 cbr 1000 ------- 2 1.0 2.0 146 168
- 0.403152 1 2 tcp 1040 ------- 1 0.0 3.0 12 164
r 0.403216 0 1 tcp 1040 ------- 1 0.0 3.0 14 166
+ 0.403216 1 2 tcp 1040 ------- 1 0.0 3.0 14 166
- 0.403984 1 2 cbr 1000 ------- 2 1.0 2.0 151 173
+ 0.404 1 2 cbr 1000 ------- 2 1.0 2.0 152 174
- 0.404784 1 2 tcp 1040 ------- 1 0.0 3.0 13 165
r 0.4048 1 2 cbr 1000 ------- 2 1.0 2.0 147 169
- 0.405616 1 2 tcp 1040 ------- 1 0.0 3.0 14 166
+ 0.406 1 2 cbr 1000 ------- 2 1.0 2.0 153 175
- 0.406448 1 2 cbr 1000 ------- 2 1.0 2.0 152 174
r 0.4068 1 2 cbr 1000 ------- 2 1.0 2.0 148 170
- 0.407248 1 2 cbr 1000 ------- 2 1.0 2.0 153 175
+ 0.408 1 2 cbr 1000 ------- 2 1.0 2.0 154 176
- 0.408048 1 2 cbr 1000 ------- 2 1.0 2.0 154 176
r 0.408224 1 2 tcp 1040 ------- 1 0.0 3.0 7 158
+ 0.408224 2 3 tcp 1040 ------- 1 0.0 3.0 7 158
- 0.408224 2 3 tcp 1040 ------- 1 0.0 3.0 7 158
r 0.409024 1 2 cbr 1000 ------- 2 1.0 2.0 149 171
r 0.409856 1 2 tcp 1040 ------- 1 0.0 3.0 8 159
+ 0.409856 2 3 tcp 1040 ------- 1 0.0 3.0 8 159
- 0.409856 2 3 tcp 1040 ------- 1 0.0 3.0 8 159
+ 0.41 1 2 cbr 1000 ------- 2 1.0 2.0 155 177
- 0.41 1 2 cbr 1000 ------- 2 1.0 2.0 155 177
r 0.410688 1 2 tcp 1040 ------- 1 0.0 3.0 9 160
+ 0.410688 2 3 tcp 1040 ------- 1 0.0 3.0 9 160
- 0.410688 2 3 tcp 1040 ------- 1 0.0 3.0 9 160
r 0.41152 1 2 tcp 1040 ------- 1 0.0 3.0 10 161
+ 0.41152 2 3 tcp 1040 ------- 1 0.0 3.0 10 161
- 0.41152 2 3 tcp 1040 ------- 1 0.0 3.0 10 161
+ 0.412 1 2 cbr 1000 ------- 2 1.0 2.0 156 178
- 0.412 1 2 cbr 1000 ------- 2 1.0 2.0 156 178
r 0.41232 1 2 cbr 1000 ------- 2 1.0 2.0 150 172
r 0.413152 1 2 tcp 1040 ------- 1 0.0 3.0 11 163
+ 0.413152 2 3 tcp 1040 ------- 1 0.0 3.0 11 163
- 0.413152 2 3 tcp 1040 ------- 1 0.0 3.0 11 163
r 0.413984 1 2 tcp 1040 ------- 1 0.0 3.0 12 164
+ 0.413984 2 3 tcp 1040 ------- 1 0.0 3.0 12 164
- 0.413984 2 3 tcp 1040 ------- 1 0.0 3.0 12 164