+ 0.1 1 2 cbr 1000 ------- 2 1.0 2.0 0 0
- 0.1 1 2 cbr 1000 ------- 2 1.0 2.0 0 0
+ 0.108 1 2 cbr 1000 ------- 2 1.0 2.0 1 1
- 0.108 1 2 cbr 1000 ------- 2 1.0 2.0 1 1
r 0.1108 1 2 cbr 1000 ------- 2 1.0 2.0 0 0
+ 0.116 1 2 cbr 1000 ------- 2 1.0 2.0 2 2
- 0.116 1 2 cbr 1000 ------- 2 1.0 2.0 2 2
r 0.1188 1 2 cbr 1000 ------- 2 1.0 2.0 1 1
+ 0.124 1 2 cbr 1000 ------- 2 1.0 2.0 3 3
- 0.124 1 2 cbr 1000 ------- 2 1.0 2.0 3 3
r 0.1268 1 2 cbr 1000 ------- 2 1.0 2.0 2 2
+ 0.132 1 2 cbr 1000 ------- 2 1.0 2.0 4 4
- 0.132 1 2 cbr 1000 ------- 2 1.0 2.0 4 4
r 0.1348 1 2 cbr 1000 ------- 2 1.0 2.0 3 3
+ 0.14 1 2 cbr 1000 ------- 2 1.0 2.0 5 5
- 0.14 1 2 cbr 1000 ------- 2 1.0 2.0 5 5
r 0.1428 1 2 cbr 1000 ------- 2 1.0 2.0 4 4
+ 0.148 1 2 cbr 1000 ------- 2 1.0 2.0 6 6
- 0.148 1 2 cbr 1000 ------- 2 1.0 2.0 6 6
r 0.1508 1 2 cbr 1000 ------- 2 1.0 2.0 5 5
+ 0.156 1 2 cbr 1000 ------- 2 1.0 2.0 7 7
- 0.156 1 2 cbr 1000 ------- 2 1.0 2.0 7 7
r 0.1588 1 2 cbr 1000 ------- 2 1.0 2.0 6 6
+ 0.164 1 2 cbr 1000 ------- 2 1.0 2.0 8 8
- 0.164 1 2 cbr 1000 ------- 2 1.0 2.0 8 8
r 0.1668 1 2 cbr 1000 ------- 2 1.0 2.0 7 7
+ 0.172 1 2 cbr 1000 ------- 2 1.0 2.0 9 9
- 0.172 1 2 cbr 1000 ------- 2 1.0 2.0 9 9
r 0.1748 1 2 cbr 1000 ------- 2 1.0 2.0 8 8
+ 0.18 1 2 cbr 1000 ------- 2 1.0 2.0 10 10
- 0.18 1 2 cbr 1000 ------- 2 1.0 2.0 10 10
r 0.1828 1 2 cbr 1000 ------- 2 1.0 2.0 9 9
+ 0.188 1 2 cbr 1000 ------- 2 1.0 2.0 11 11
- 0.188 1 2 cbr 1000 ------- 2 1.0 2.0 11 11
r 0.1908 1 2 cbr 1000 ------- 2 1.0 2.0 10 10
+ 0.196 1 2 cbr 1000 ------- 2 1.0 2.0 12 12
- 0.196 1 2 cbr 1000 ------- 2 1.0 2.0 12 12
r 0.1988 1 2 cbr 1000 ------- 2 1.0 2.0 11 11
+ 0.2 0 1 tcp 40 ------- 1 0.0 3.0 0 13
- 0.2 0 1 tcp 40 ------- 1 0.0 3.0 0 13
+ 0.204 1 2 cbr 1000 ------- 2 1.0 2.0 13 14
- 0.204 1 2 cbr 1000 ------- 2 1.0 2.0 13 14
r 0.2068 1 2 cbr 1000 ------- 2 1.0 2.0 12 12
r 0.210032 0 1 tcp 40 ------- 1 0.0 3.0 0 13
+ 0.210032 1 2 tcp 40 ------- 1 0.0 3.0 0 13
- 0.210032 1 2 tcp 40 ------- 1 0.0 3.0 0 13
+ 0.212 1 2 cbr 1000 ------- 2 1.0 2.0 14 15
- 0.212 1 2 cbr 1000 ------- 2 1.0 2.0 14 15
r 0.2148 1 2 cbr 1000 ------- 2 1.0 2.0 13 14
+ 0.22 1 2 cbr 1000 ------- 2 1.0 2.0 15 16
- 0.22 1 2 cbr 1000 ------- 2 1.0 2.0 15 16
r 0.220064 1 2 tcp 40 ------- 1 0.0 3.0 0 13
+ 0.220064 2 3 tcp 40 ------- 1 0.0 3.0 0 13
- 0.220064 2 3 tcp 40 ------- 1 0.0 3.0 0 13
r 0.2228 1 2 cbr 1000 ------- 2 1.0 2.0 14 15
+ 0.228 1 2 cbr 1000 ------- 2 1.0 2.0 16 17
- 0.228 1 2 cbr 1000 ------- 2 1.0 2.0 16 17
r 0.230096 2 3 tcp 40 ------- 1 0.0 3.0 0 13
+ 0.230096 3 2 ack 40 ------- 1 3.0 0.0 0 18
- 0.230096 3 2 ack 40 ------- 1 3.0 0.0 0 18
r 0.2308 1 2 cbr 1000 ------- 2 1.0 2.0 15 16
+ 0.236 1 2 cbr 1000 ------- 2 1.0 2.0 17 19
- 0.236 1 2 cbr 1000 ------- 2 1.0 2.0 17 19
r 0.2388 1 2 cbr 1000 ------- 2 1.0 2.0 16 17
r 0.240128 3 2 ack 40 ------- 1 3.0 0.0 0 18
+ 0.240128 2 1 ack 40 ------- 1 3.0 0.0 0 18
- 0.240128 2 1 ack 40 ------- 1 3.0 0.0 0 18
+ 0.244 1 2 cbr 1000 ------- 2 1.0 2.0 18 20
- 0.244 1 2 cbr 1000 ------- 2 1.0 2.0 18 20
r 0.2468 1 2 cbr 1000 ------- 2 1.0 2.0 17 19
r 0.25016 2 1 ack 40 ------- 1 3.0 0.0 0 18
+ 0.25016 1 0 ack 40 ------- 1 3.0 0.0 0 18
- 0.25016 1 0 ack 40 ------- 1 3.0 0.0 0 18
+ 0.252 1 2 cbr 1000 ------- 2 1.0 2.0 19 21
- 0.252 1 2 cbr 1000 ------- 2 1.0 2.0 19 21
r 0.2548 1 2 cbr 1000 ------- 2 1.0 2.0 18 20
+ 0.26 1 2 cbr 1000 ------- 2 1.0 2.0 20 22
- 0.26 1 2 cbr 1000 ------- 2 1.0 2.0 20 22
r 0.260192 1 0 ack 40 ------- 1 3.0 0.0 0 18
+ 0.260192 0 1 tcp 1040 ------- 1 0.0 3.0 1 23
- 0.260192 0 1 tcp 1040 ------- 1 0.0 3.0 1 23
+ 0.260192 0 1 tcp 1040 ------- 1 0.0 3.0 2 24
- 0.261024 0 1 tcp 1040 ------- 1 0.0 3.0 2 24
r 0.2628 1 2 cbr 1000 ------- 2 1.0 2.0 19 21
+ 0.268 1 2 cbr 1000 ------- 2 1.0 2.0 21 25
- 0.268 1 2 cbr 1000 ------- 2 1.0 2.0 21 25
r 0.2708 1 2 cbr 1000 ------- 2 1.0 2.0 20 22
r 0.271024 0 1 tcp 1040 ------- 1 0.0 3.0 1 23
+ 0.271024 1 2 tcp 1040 ------- 1 0.0 3.0 1 23
- 0.271024 1 2 tcp 1040 ------- 1 0.0 3.0 1 23
r 0.271856 0 1 tcp 1040 ------- 1 0.0 3.0 2 24
+ 0.271856 1 2 tcp 1040 ------- 1 0.0 3.0 2 24
- 0.271856 1 2 tcp 1040 ------- 1 0.0 3.0 2 24
+ 0.276 1 2 cbr 1000 ------- 2 1.0 2.0 22 26
- 0.276 1 2 cbr 1000 ------- 2 1.0 2.0 22 26
r 0.2788 1 2 cbr 1000 ------- 2 1.0 2.0 21 25
r 0.281856 1 2 tcp 1040 ------- 1 0.0 3.0 1 23
+ 0.281856 2 3 tcp 1040 ------- 1 0.0 3.0 1 23
- 0.281856 2 3 tcp 1040 ------- 1 0.0 3.0 1 23
r 0.282688 1 2 tcp 1040 ------- 1 0.0 3.0 2 24
+ 0.282688 2 3 tcp 1040 ------- 1 0.0 3.0 2 24
- 0.282688 2 3 tcp 1040 ------- 1 0.0 3.0 2 24
+ 0.284 1 2 cbr 1000 ------- 2 1.0 2.0 23 27
- 0.284 1 2 cbr 1000 ------- 2 1.0 2.0 23 27
r 0.2868 1 2 cbr 1000 ------- 2 1.0 2.0 22 26
+ 0.292 1 2 cbr 1000 ------- 2 1.0 2.0 24 28
- 0.292 1 2 cbr 1000 ------- 2 1.0 2.0 24 28
r 0.292688 2 3 tcp 1040 ------- 1 0.0 3.0 1 23
+ 0.292688 3 2 ack 40 ------- 1 3.0 0.0 1 29
- 0.292688 3 2 ack 40 ------- 1 3.0 0.0 1 29
r 0.29352 2 3 tcp 1040 ------- 1 0.0 3.0 2 24
+ 0.29352 3 2 ack 40 ------- 1 3.0 0.0 2 30
- 0.29352 3 2 ack 40 ------- 1 3.0 0.0 2 30
r 0.2948 1 2 cbr 1000 ------- 2 1.0 2.0 23 27
+ 0.3 1 2 cbr 1000 ------- 2 1.0 2.0 25 31
- 0.3 1 2 cbr 1000 ------- 2 1.0 2.0 25 31
r 0.30272 3 2 ack 40 ------- 1 3.0 0.0 1 29
+ 0.30272 2 1 ack 40 ------- 1 3.0 0.0 1 29
- 0.30272 2 1 ack 40 ------- 1 3.0 0.0 1 29
r 0.3028 1 2 cbr 1000 ------- 2 1.0 2.0 24 28
r 0.303552 3 2 ack 40 ------- 1 3.0 0.0 2 30
+ 0.303552 2 1 ack 40 ------- 1 3.0 0.0 2 30
- 0.303552 2 1 ack 40 ------- 1 3.0 0.0 2 30
+ 0.308 1 2 cbr 1000 ------- 2 1.0 2.0 26 32
- 0.308 1 2 cbr 1000 ------- 2 1.0 2.0 26 32
r 0.3108 1 2 cbr 1000 ------- 2 1.0 2.0 25 31
r 0.312752 2 1 ack 40 ------- 1 3.0 0.0 1 29
+ 0.312752 1 0 ack 40 ------- 1 3.0 0.0 1 29
- 0.312752 1 0 ack 40 ------- 1 3.0 0.0 1 29
r 0.313584 2 1 ack 40 ------- 1 3.0 0.0 2 30
+ 0.313584 1 0 ack 40 ------- 1 3.0 0.0 2 30
- 0.313584 1 0 ack 40 ------- 1 3.0 0.0 2 30
+ 0.316 1 2 cbr 1000 ------- 2 1.0 2.0 27 33
- 0.316 1 2 cbr 1000 ------- 2 1.0 2.0 27 33
r 0.3188 1 2 cbr 1000 ------- 2 1.0 2.0 26 32
r 0.322784 1 0 ack 40 ------- 1 3.0 0.0 1 29
+ 0.322784 0 1 tcp 1040 ------- 1 0.0 3.0 3 34
- 0.322784 0 1 tcp 1040 ------- 1 0.0 3.0 3 34
+ 0.322784 0 1 tcp 1040 ------- 1 0.0 3.0 4 35
r 0.323616 1 0 ack 40 ------- 1 3.0 0.0 2 30
+ 0.323616 0 1 tcp 1040 ------- 1 0.0 3.0 5 36
+ 0.323616 0 1 tcp 1040 ------- 1 0.0 3.0 6 37
- 0.323616 0 1 tcp 1040 ------- 1 0.0 3.0 4 35
+ 0.324 1 2 cbr 1000 ------- 2 1.0 2.0 28 38
- 0.324 1 2 cbr 1000 ------- 2 1.0 2.0 28 38
- 0.324448 0 1 tcp 1040 ------- 1 0.0 3.0 5 36
- 0.32528 0 1 tcp 1040 ------- 1 0.0 3.0 6 37
r 0.3268 1 2 cbr 1000 ------- 2 1.0 2.0 27 33
+ 0.332 1 2 cbr 1000 ------- 2 1.0 2.0 29 39
- 0.332 1 2 cbr 1000 ------- 2 1.0 2.0 29 39
r 0.333616 0 1 tcp 1040 ------- 1 0.0 3.0 3 34
+ 0.333616 1 2 tcp 1040 ------- 1 0.0 3.0 3 34
- 0.333616 1 2 tcp 1040 ------- 1 0.0 3.0 3 34
r 0.334448 0 1 tcp 1040 ------- 1 0.0 3.0 4 35
+ 0.334448 1 2 tcp 1040 ------- 1 0.0 3.0 4 35
- 0.334448 1 2 tcp 1040 ------- 1 0.0 3.0 4 35
r 0.3348 1 2 cbr 1000 ------- 2 1.0 2.0 28 38
r 0.33528 0 1 tcp 1040 ------- 1 0.0 3.0 5 36
+ 0.33528 1 2 tcp 1040 ------- 1 0.0 3.0 5 36
- 0.33528 1 2 tcp 1040 ------- 1 0.0 3.0 5 36
r 0.336112 0 1 tcp 1040 ------- 1 0.0 3.0 6 37
+ 0.336112 1 2 tcp 1040 ------- 1 0.0 3.0 6 37
- 0.336112 1 2 tcp 1040 ------- 1 0.0 3.0 6 37
+ 0.34 1 2 cbr 1000 ------- 2 1.0 2.0 30 40
- 0.34 1 2 cbr 1000 ------- 2 1.0 2.0 30 40
r 0.3428 1 2 cbr 1000 ------- 2 1.0 2.0 29 39
r 0.344448 1 2 tcp 1040 ------- 1 0.0 3.0 3 34
+ 0.344448 2 3 tcp 1040 ------- 1 0.0 3.0 3 34
- 0.344448 2 3 tcp 1040 ------- 1 0.0 3.0 3 34
r 0.34528 1 2 tcp 1040 ------- 1 0.0 3.0 4 35
+ 0.34528 2 3 tcp 1040 ------- 1 0.0 3.0 4 35
- 0.34528 2 3 tcp 1040 ------- 1 0.0 3.0 4 35
r 0.346112 1 2 tcp 1040 ------- 1 0.0 3.0 5 36
+ 0.346112 2 3 tcp 1040 ------- 1 0.0 3.0 5 36
- 0.346112 2 3 tcp 1040 ------- 1 0.0 3.0 5 36
r 0.346944 1 2 tcp 1040 ------- 1 0.0 3.0 6 37
+ 0.346944 2 3 tcp 1040 ------- 1 0.0 3.0 6 37
- 0.346944 2 3 tcp 1040 ------- 1 0.0 3.0 6 37
+ 0.348 1 2 cbr 1000 ------- 2 1.0 2.0 31 41
- 0.348 1 2 cbr 1000 ------- 2 1.0 2.0 31 41
r 0.3508 1 2 cbr 1000 ------- 2 1.0 2.0 30 40
r 0.35528 2 3 tcp 1040 ------- 1 0.0 3.0 3 34
+ 0.35528 3 2 ack 40 ------- 1 3.0 0.0 3 42
- 0.35528 3 2 ack 40 ------- 1 3.0 0.0 3 42
+ 0.356 1 2 cbr 1000 ------- 2 1.0 2.0 32 43
- 0.356 1 2 cbr 1000 ------- 2 1.0 2.0 32 43
r 0.356112 2 3 tcp 1040 ------- 1 0.0 3.0 4 35
+ 0.356112 3 2 ack 40 ------- 1 3.0 0.0 4 44
- 0.356112 3 2 ack 40 ------- 1 3.0 0.0 4 44
r 0.356944 2 3 tcp 1040 ------- 1 0.0 3.0 5 36
+ 0.356944 3 2 ack 40 ------- 1 3.0 0.0 5 45
- 0.356944 3 2 ack 40 ------- 1 3.0 0.0 5 45
r 0.357776 2 3 tcp 1040 ------- 1 0.0 3.0 6 37
+ 0.357776 3 2 ack 40 ------- 1 3.0 0.0 6 46
- 0.357776 3 2 ack 40 ------- 1 3.0 0.0 6 46
r 0.3588 1 2 cbr 1000 ------- 2 1.0 2.0 31 41
+ 0.364 1 2 cbr 1000 ------- 2 1.0 2.0 33 47
- 0.364 1 2 cbr 1000 ------- 2 1.0 2.0 33 47
r 0.365312 3 2 ack 40 ------- 1 3.0 0.0 3 42
+ 0.365312 2 1 ack 40 ------- 1 3.0 0.0 3 42
- 0.365312 2 1 ack 40 ------- 1 3.0 0.0 3 42
r 0.366144 3 2 ack 40 ------- 1 3.0 0.0 4 44
+ 0.366144 2 1 ack 40 ------- 1 3.0 0.0 4 44
- 0.366144 2 1 ack 40 ------- 1 3.0 0.0 4 44
r 0.3668 1 2 cbr 1000 ------- 2 1.0 2.0 32 43
r 0.366976 3 2 ack 40 ------- 1 3.0 0.0 5 45
+ 0.366976 2 1 ack 40 ------- 1 3.0 0.0 5 45
- 0.366976 2 1 ack 40 ------- 1 3.0 0.0 5 45
r 0.367808 3 2 ack 40 ------- 1 3.0 0.0 6 46
+ 0.367808 2 1 ack 40 ------- 1 3.0 0.0 6 46
- 0.367808 2 1 ack 40 ------- 1 3.0 0.0 6 46
+ 0.372 1 2 cbr 1000 ------- 2 1.0 2.0 34 48
- 0.372 1 2 cbr 1000 ------- 2 1.0 2.0 34 48
r 0.3748 1 2 cbr 1000 ------- 2 1.0 2.0 33 47
r 0.375344 2 1 ack 40 ------- 1 3.0 0.0 3 42
+ 0.375344 1 0 ack 40 ------- 1 3.0 0.0 3 42
- 0.375344 1 0 ack 40 ------- 1 3.0 0.0 3 42
r 0.376176 2 1 ack 40 ------- 1 3.0 0.0 4 44
+ 0.376176 1 0 ack 40 ------- 1 3.0 0.0 4 44
- 0.376176 1 0 ack 40 ------- 1 3.0 0.0 4 44
r 0.377008 2 1 ack 40 ------- 1 3.0 0.0 5 45
+ 0.377008 1 0 ack 40 ------- 1 3.0 0.0 5 45
- 0.377008 1 0 ack 40 ------- 1 3.0 0.0 5 45
r 0.37784 2 1 ack 40 ------- 1 3.0 0.0 6 46
+ 0.37784 1 0 ack 40 ------- 1 3.0 0.0 6 46
- 0.37784 1 0 ack 40 ------- 1 3.0 0.0 6 46
+ 0.38 1 2 cbr 1000 ------- 2 1.0 2.0 35 49
- 0.38 1 2 cbr 1000 ------- 2 1.0 2.0 35 49
r 0.3828 1 2 cbr 1000 ------- 2 1.0 2.0 34 48
r 0.385376 1 0 ack 40 ------- 1 3.0 0.0 3 42
+ 0.385376 0 1 tcp 1040 ------- 1 0.0 3.0 7 50
- 0.385376 0 1 tcp 1040 ------- 1 0.0 3.0 7 50
+ 0.385376 0 1 tcp 1040 ------- 1 0.0 3.0 8 51
r 0.386208 1 0 ack 40 ------- 1 3.0 0.0 4 44
+ 0.386208 0 1 tcp 1040 ------- 1 0.0 3.0 9 52
+ 0.386208 0 1 tcp 1040 ------- 1 0.0 3.0 10 53
- 0.386208 0 1 tcp 1040 ------- 1 0.0 3.0 8 51
r 0.38704 1 0 ack 40 ------- 1 3.0 0.0 5 45
+ 0.38704 0 1 tcp 1040 ------- 1 0.0 3.0 11 54
+ 0.38704 0 1 tcp 1040 ------- 1 0.0 3.0 12 55
- 0.38704 0 1 tcp 1040 ------- 1 0.0 3.0 9 52
r 0.387872 1 0 ack 40 ------- 1 3.0 0.0 6 46
+ 0.387872 0 1 tcp 1040 ------- 1 0.0 3.0 13 56
+ 0.387872 0 1 tcp 1040 ------- 1 0.0 3.0 14 57
- 0.387872 0 1 tcp 1040 ------- 1 0.0 3.0 10 53
+ 0.388 1 2 cbr 1000 ------- 2 1.0 2.0 36 58
- 0.388 1 2 cbr 1000 ------- 2 1.0 2.0 36 58
- 0.388704 0 1 tcp 1040 ------- 1 0.0 3.0 11 54
- 0.389536 0 1 tcp 1040 ------- 1 0.0 3.0 12 55
- 0.390368 0 1 tcp 1040 ------- 1 0.0 3.0 13 56
r 0.3908 1 2 cbr 1000 ------- 2 1.0 2.0 35 49
- 0.3912 0 1 tcp 1040 ------- 1 0.0 3.0 14 57
+ 0.396 1 2 cbr 1000 ------- 2 1.0 2.0 37 59
- 0.396 1 2 cbr 1000 ------- 2 1.0 2.0 37 59
r 0.396208 0 1 tcp 1040 ------- 1 0.0 3.0 7 50
+ 0.396208 1 2 tcp 1040 ------- 1 0.0 3.0 7 50
- 0.3968 1 2 tcp 1040 ------- 1 0.0 3.0 7 50
r 0.39704 0 1 tcp 1040 ------- 1 0.0 3.0 8 51
+ 0.39704 1 2 tcp 1040 ------- 1 0.0 3.0 8 51
- 0.397632 1 2 tcp 1040 ------- 1 0.0 3.0 8 51
r 0.397872 0 1 tcp 1040 ------- 1 0.0 3.0 9 52
+ 0.397872 1 2 tcp 1040 ------- 1 0.0 3.0 9 52
- 0.398464 1 2 tcp 1040 ------- 1 0.0 3.0 9 52
r 0.398704 0 1 tcp 1040 ------- 1 0.0 3.0 10 53
+ 0.398704 1 2 tcp 1040 ------- 1 0.0 3.0 10 53
r 0.3988 1 2 cbr 1000 ------- 2 1.0 2.0 36 58
- 0.399296 1 2 tcp 1040 ------- 1 0.0 3.0 10 53
r 0.399536 0 1 tcp 1040 ------- 1 0.0 3.0 11 54
+ 0.399536 1 2 tcp 1040 ------- 1 0.0 3.0 11 54
- 0.400128 1 2 tcp 1040 ------- 1 0.0 3.0 11 54
r 0.400368 0 1 tcp 1040 ------- 1 0.0 3.0 12 55
+ 0.400368 1 2 tcp 1040 ------- 1 0.0 3.0 12 55
- 0.40096 1 2 tcp 1040 ------- 1 0.0 3.0 12 55
r 0.4012 0 1 tcp 1040 ------- 1 0.0 3.0 13 56
+ 0.4012 1 2 tcp 1040 ------- 1 0.0 3.0 13 56
- 0.401792 1 2 tcp 1040 ------- 1 0.0 3.0 13 56
r 0.402032 0 1 tcp 1040 ------- 1 0.0 3.0 14 57
+ 0.402032 1 2 tcp 1040 ------- 1 0.0 3.0 14 57
- 0.402624 1 2 tcp 1040 ------- 1 0.0 3.0 14 57
+ 0.404 1 2 cbr 1000 ------- 2 1.0 2.0 38 60
- 0.404 1 2 cbr 1000 ------- 2 1.0 2.0 38 60
r 0.4068 1 2 cbr 1000 ------- 2 1.0 2.0 37 59
r 0.407632 1 2 tcp 1040 ------- 1 0.0 3.0 7 50
+ 0.407632 2 3 tcp 1040 ------- 1 0.0 3.0 7 50
- 0.407632 2 3 tcp 1040 ------- 1 0.0 3.0 7 50
r 0.408464 1 2 tcp 1040 ------- 1 0.0 3.0 8 51
+ 0.408464 2 3 tcp 1040 ------- 1 0.0 3.0 8 51
- 0.408464 2 3 tcp 1040 ------- 1 0.0 3.0 8 51
r 0.409296 1 2 tcp 1040 ------- 1 0.0 3.0 9 52
+ 0.409296 2 3 tcp 1040 ------- 1 0.0 3.0 9 52
- 0.409296 2 3 tcp 1040 ------- 1 0.0 3.0 9 52
r 0.410128 1 2 tcp 1040 ------- 1 0.0 3.0 10 53
+ 0.410128 2 3 tcp 1040 ------- 1 0.0 3.0 10 53
- 0.410128 2 3 tcp 1040 ------- 1 0.0 3.0 10 53
r 0.41096 1 2 tcp 1040 ------- 1 0.0 3.0 11 54
+ 0.41096 2 3 tcp 1040 ------- 1 0.0 3.0 11 54
- 0.41096 2 3 tcp 1040 ------- 1 0.0 3.0 11 54
r 0.411792 1 2 tcp 1040 ------- 1 0.0 3.0 12 55
+ 0.411792 2 3 tcp 1040 ------- 1 0.0 3.0 12 55
- 0.411792 2 3 tcp 1040 ------- 1 0.0 3.0 12 55
+ 0.412 1 2 cbr 1000 ------- 2 1.0 2.0 39 61
- 0.412 1 2 cbr 1000 ------- 2 1.0 2.0 39 61
r 0.412624 1 2 tcp 1040 ------- 1 0.0 3.0 13 56
+ 0.412624 2 3 tcp 1040 ------- 1 0.0 3.0 13 56
- 0.412624 2 3 tcp 1040 ------- 1 0.0 3.0 13 56
r 0.413456 1 2 tcp 1040 ------- 1 0.0 3.0 14 57
+ 0.413456 2 3 tcp 1040 ------- 1 0.0 3.0 14 57
- 0.413456 2 3 tcp 1040 ------- 1 0.0 3.0 14 57
r 0.4148 1 2 cbr 1000 ------- 2 1.0 2.0 38 60
r 0.418464 2 3 tcp 1040 ------- 1 0.0 3.0 7 50
+ 0.418464 3 2 ack 40 ------- 1 3.0 0.0 7 62
- 0.418464 3 2 ack 40 ------- 1 3.0 0.0 7 62
r 0.419296 2 3 tcp 1040 ------- 1 0.0 3.0 8 51
+ 0.419296 3 2 ack 40 ------- 1 3.0 0.0 8 63
- 0.419296 3 2 ack 40 ------- 1 3.0 0.0 8 63
+ 0.42 1 2 cbr 1000 ------- 2 1.0 2.0 40 64
- 0.42 1 2 cbr 1000 ------- 2 1.0 2.0 40 64
r 0.420128 2 3 tcp 1040 ------- 1 0.0 3.0 9 52
+ 0.420128 3 2 ack 40 ------- 1 3.0 0.0 9 65
- 0.420128 3 2 ack 40 ------- 1 3.0 0.0 9 65
r 0.42096 2 3 tcp 1040 ------- 1 0.0 3.0 10 53
+ 0.42096 3 2 ack 40 ------- 1 3.0 0.0 10 66
- 0.42096 3 2 ack 40 ------- 1 3.0 0.0 10 66
r 0.421792 2 3 tcp 1040 ------- 1 0.0 3.0 11 54
+ 0.421792 3 2 ack 40 ------- 1 3.0 0.0 11 67
- 0.421792 3 2 ack 40 ------- 1 3.0 0.0 11 67
r 0.422624 2 3 tcp 1040 ------- 1 0.0 3.0 12 55
+ 0.422624 3 2 ack 40 ------- 1 3.0 0.0 12 68
- 0.422624 3 2 ack 40 ------- 1 3.0 0.0 12 68
r 0.4228 1 2 cbr 1000 ------- 2 1.0 2.0 39 61
r 0.423456 2 3 tcp 1040 ------- 1 0.0 3.0 13 56
+ 0.423456 3 2 ack 40 ------- 1 3.0 0.0 13 69
- 0.423456 3 2 ack 40 ------- 1 3.0 0.0 13 69
r 0.424288 2 3 tcp 1040 ------- 1 0.0 3.0 14 57
+ 0.424288 3 2 ack 40 ------- 1 3.0 0.0 14 70
- 0.424288 3 2 ack 40 ------- 1 3.0 0.0 14 70
+ 0.428 1 2 cbr 1000 ------- 2 1.0 2.0 41 71
- 0.428 1 2 cbr 1000 ------- 2 1.0 2.0 41 71
r 0.428496 3 2 ack 40 ------- 1 3.0 0.0 7 62
+ 0.428496 2 1 ack 40 ------- 1 3.0 0.0 7 62
- 0.428496 2 1 ack 40 ------- 1 3.0 0.0 7 62
r 0.429328 3 2 ack 40 ------- 1 3.0 0.0 8 63
+ 0.429328 2 1 ack 40 ------- 1 3.0 0.0 8 63
- 0.429328 2 1 ack 40 ------- 1 3.0 0.0 8 63
r 0.43016 3 2 ack 40 ------- 1 3.0 0.0 9 65
+ 0.43016 2 1 ack 40 ------- 1 3.0 0.0 9 65
- 0.43016 2 1 ack 40 ------- 1 3.0 0.0 9 65
r 0.4308 1 2 cbr 1000 ------- 2 1.0 2.0 40 64
r 0.430992 3 2 ack 40 ------- 1 3.0 0.0 10 66
+ 0.430992 2 1 ack 40 ------- 1 3.0 0.0 10 66
- 0.430992 2 1 ack 40 ------- 1 3.0 0.0 10 66
r 0.431824 3 2 ack 40 ------- 1 3.0 0.0 11 67
+ 0.431824 2 1 ack 40 ------- 1 3.0 0.0 11 67
- 0.431824 2 1 ack 40 ------- 1 3.0 0.0 11 67
r 0.432656 3 2 ack 40 ------- 1 3.0 0.0 12 68
+ 0.432656 2 1 ack 40 ------- 1 3.0 0.0 12 68
- 0.432656 2 1 ack 40 ------- 1 3.0 0.0 12 68
r 0.433488 3 2 ack 40 ------- 1 3.0 0.0 13 69
+ 0.433488 2 1 ack 40 ------- 1 3.0 0.0 13 69
- 0.433488 2 1 ack 40 ------- 1 3.0 0.0 13 69
r 0.43432 3 2 ack 40 ------- 1 3.0 0.0 14 70
+ 0.43432 2 1 ack 40 ------- 1 3.0 0.0 14 70
- 0.43432 2 1 ack 40 ------- 1 3.0 0.0 14 70
+ 0.436 1 2 cbr 1000 ------- 2 1.0 2.0 42 72
- 0.436 1 2 cbr 1000 ------- 2 1.0 2.0 42 72
r 0.438528 2 1 ack 40 ------- 1 3.0 0.0 7 62
+ 0.438528 1 0 ack 40 ------- 1 3.0 0.0 7 62
- 0.438528 1 0 ack 40 ------- 1 3.0 0.0 7 62
r 0.4388 1 2 cbr 1000 ------- 2 1.0 2.0 41 71
r 0.43936 2 1 ack 40 ------- 1 3.0 0.0 8 63
+ 0.43936 1 0 ack 40 ------- 1 3.0 0.0 8 63
- 0.43936 1 0 ack 40 ------- 1 3.0 0.0 8 63
r 0.440192 2 1 ack 40 ------- 1 3.0 0.0 9 65
+ 0.440192 1 0 ack 40 ------- 1 3.0 0.0 9 65
- 0.440192 1 0 ack 40 ------- 1 3.0 0.0 9 65
r 0.441024 2 1 ack 40 ------- 1 3.0 0.0 10 66
+ 0.441024 1 0 ack 40 ------- 1 3.0 0.0 10 66
- 0.441024 1 0 ack 40 ------- 1 3.0 0.0 10 66
r 0.441856 2 1 ack 40 ------- 1 3.0 0.0 11 67
+ 0.441856 1 0 ack 40 ------- 1 3.0 0.0 11 67
- 0.441856 1 0 ack 40 ------- 1 3.0 0.0 11 67
r 0.442688 2 1 ack 40 ------- 1 3.0 0.0 12 68
+ 0.442688 1 0 ack 40 ------- 1 3.0 0.0 12 68
- 0.442688 1 0 ack 40 ------- 1 3.0 0.0 12 68
r 0.44352 2 1 ack 40 ------- 1 3.0 0.0 13 69
+ 0.44352 1 0 ack 40 ------- 1 3.0 0.0 13 69
- 0.44352 1 0 ack 40 ------- 1 3.0 0.0 13 69
+ 0.444 1 2 cbr 1000 ------- 2 1.0 2.0 43 73
- 0.444 1 2 cbr 1000 ------- 2 1.0 2.0 43 73
r 0.444352 2 1 ack 40 ------- 1 3.0 0.0 14 70
+ 0.444352 1 0 ack 40 ------- 1 3.0 0.0 14 70
- 0.444352 1 0 ack 40 ------- 1 3.0 0.0 14 70
r 0.4468 1 2 cbr 1000 ------- 2 1.0 2.0 42 72
r 0.44856 1 0 ack 40 ------- 1 3.0 0.0 7 62
+ 0.44856 0 1 tcp 1040 ------- 1 0.0 3.0 15 74
- 0.44856 0 1 tcp 1040 ------- 1 0.0 3.0 15 74
+ 0.44856 0 1 tcp 1040 ------- 1 0.0 3.0 16 75
r 0.449392 1 0 ack 40 ------- 1 3.0 0.0 8 63
+ 0.449392 0 1 tcp 1040 ------- 1 0.0 3.0 17 76
+ 0.449392 0 1 tcp 1040 ------- 1 0.0 3.0 18 77
- 0.449392 0 1 tcp 1040 ------- 1 0.0 3.0 16 75
r 0.450224 1 0 ack 40 ------- 1 3.0 0.0 9 65
+ 0.450224 0 1 tcp 1040 ------- 1 0.0 3.0 19 78
+ 0.450224 0 1 tcp 1040 ------- 1 0.0 3.0 20 79
- 0.450224 0 1 tcp 1040 ------- 1 0.0 3.0 17 76
r 0.451056 1 0 ack 40 ------- 1 3.0 0.0 10 66
+ 0.451056 0 1 tcp 1040 ------- 1 0.0 3.0 21 80
+ 0.451056 0 1 tcp 1040 ------- 1 0.0 3.0 22 81
- 0.451056 0 1 tcp 1040 ------- 1 0.0 3.0 18 77
r 0.451888 1 0 ack 40 ------- 1 3.0 0.0 11 67
+ 0.451888 0 1 tcp 1040 ------- 1 0.0 3.0 23 82
+ 0.451888 0 1 tcp 1040 ------- 1 0.0 3.0 24 83
- 0.451888 0 1 tcp 1040 ------- 1 0.0 3.0 19 78
+ 0.452 1 2 cbr 1000 ------- 2 1.0 2.0 44 84
- 0.452 1 2 cbr 1000 ------- 2 1.0 2.0 44 84
r 0.45272 1 0 ack 40 ------- 1 3.0 0.0 12 68
+ 0.45272 0 1 tcp 1040 ------- 1 0.0 3.0 25 85
+ 0.45272 0 1 tcp 1040 ------- 1 0.0 3.0 26 86
- 0.45272 0 1 tcp 1040 ------- 1 0.0 3.0 20 79
r 0.453552 1 0 ack 40 ------- 1 3.0 0.0 13 69
+ 0.453552 0 1 tcp 1040 ------- 1 0.0 3.0 27 87
+ 0.453552 0 1 tcp 1040 ------- 1 0.0 3.0 28 88
- 0.453552 0 1 tcp 1040 ------- 1 0.0 3.0 21 80
r 0.454384 1 0 ack 40 ------- 1 3.0 0.0 14 70
+ 0.454384 0 1 tcp 1040 ------- 1 0.0 3.0 29 89
+ 0.454384 0 1 tcp 1040 ------- 1 0.0 3.0 30 90
- 0.454384 0 1 tcp 1040 ------- 1 0.0 3.0 22 81
r 0.4548 1 2 cbr 1000 ------- 2 1.0 2.0 43 73
- 0.455216 0 1 tcp 1040 ------- 1 0.0 3.0 23 82
- 0.456048 0 1 tcp 1040 ------- 1 0.0 3.0 24 83
- 0.45688 0 1 tcp 1040 ------- 1 0.0 3.0 25 85
- 0.457712 0 1 tcp 1040 ------- 1 0.0 3.0 26 86
- 0.458544 0 1 tcp 1040 ------- 1 0.0 3.0 27 87
- 0.459376 0 1 tcp 1040 ------- 1 0.0 3.0 28 88
r 0.459392 0 1 tcp 1040 ------- 1 0.0 3.0 15 74
+ 0.459392 1 2 tcp 1040 ------- 1 0.0 3.0 15 74
- 0.459392 1 2 tcp 1040 ------- 1 0.0 3.0 15 74
+ 0.46 1 2 cbr 1000 ------- 2 1.0 2.0 45 91
- 0.460208 0 1 tcp 1040 ------- 1 0.0 3.0 29 89
r 0.460224 0 1 tcp 1040 ------- 1 0.0 3.0 16 75
+ 0.460224 1 2 tcp 1040 ------- 1 0.0 3.0 16 75
- 0.460224 1 2 cbr 1000 ------- 2 1.0 2.0 45 91
- 0.461024 1 2 tcp 1040 ------- 1 0.0 3.0 16 75
- 0.46104 0 1 tcp 1040 ------- 1 0.0 3.0 30 90
r 0.461056 0 1 tcp 1040 ------- 1 0.0 3.0 17 76
+ 0.461056 1 2 tcp 1040 ------- 1 0.0 3.0 17 76
- 0.461856 1 2 tcp 1040 ------- 1 0.0 3.0 17 76
r 0.461888 0 1 tcp 1040 ------- 1 0.0 3.0 18 77
+ 0.461888 1 2 tcp 1040 ------- 1 0.0 3.0 18 77
- 0.462688 1 2 tcp 1040 ------- 1 0.0 3.0 18 77
r 0.46272 0 1 tcp 1040 ------- 1 0.0 3.0 19 78
+ 0.46272 1 2 tcp 1040 ------- 1 0.0 3.0 19 78
r 0.4628 1 2 cbr 1000 ------- 2 1.0 2.0 44 84
- 0.46352 1 2 tcp 1040 ------- 1 0.0 3.0 19 78
r 0.463552 0 1 tcp 1040 ------- 1 0.0 3.0 20 79
+ 0.463552 1 2 tcp 1040 ------- 1 0.0 3.0 20 79
- 0.464352 1 2 tcp 1040 ------- 1 0.0 3.0 20 79
r 0.464384 0 1 tcp 1040 ------- 1 0.0 3.0 21 80
+ 0.464384 1 2 tcp 1040 ------- 1 0.0 3.0 21 80
- 0.465184 1 2 tcp 1040 ------- 1 0.0 3.0 21 80
r 0.465216 0 1 tcp 1040 ------- 1 0.0 3.0 22 81
+ 0.465216 1 2 tcp 1040 ------- 1 0.0 3.0 22 81
- 0.466016 1 2 tcp 1040 ------- 1 0.0 3.0 22 81
r 0.466048 0 1 tcp 1040 ------- 1 0.0 3.0 23 82
+ 0.466048 1 2 tcp 1040 ------- 1 0.0 3.0 23 82
- 0.466848 1 2 tcp 1040 ------- 1 0.0 3.0 23 82
r 0.46688 0 1 tcp 1040 ------- 1 0.0 3.0 24 83
+ 0.46688 1 2 tcp 1040 ------- 1 0.0 3.0 24 83
- 0.46768 1 2 tcp 1040 ------- 1 0.0 3.0 24 83
r 0.467712 0 1 tcp 1040 ------- 1 0.0 3.0 25 85
+ 0.467712 1 2 tcp 1040 ------- 1 0.0 3.0 25 85
+ 0.468 1 2 cbr 1000 ------- 2 1.0 2.0 46 92
- 0.468512 1 2 tcp 1040 ------- 1 0.0 3.0 25 85
r 0.468544 0 1 tcp 1040 ------- 1 0.0 3.0 26 86
+ 0.468544 1 2 tcp 1040 ------- 1 0.0 3.0 26 86
- 0.469344 1 2 cbr 1000 ------- 2 1.0 2.0 46 92
r 0.469376 0 1 tcp 1040 ------- 1 0.0 3.0 27 87
+ 0.469376 1 2 tcp 1040 ------- 1 0.0 3.0 27 87
- 0.470144 1 2 tcp 1040 ------- 1 0.0 3.0 26 86
r 0.470208 0 1 tcp 1040 ------- 1 0.0 3.0 28 88
+ 0.470208 1 2 tcp 1040 ------- 1 0.0 3.0 28 88
r 0.470224 1 2 tcp 1040 ------- 1 0.0 3.0 15 74
+ 0.470224 2 3 tcp 1040 ------- 1 0.0 3.0 15 74
- 0.470224 2 3 tcp 1040 ------- 1 0.0 3.0 15 74
- 0.470976 1 2 tcp 1040 ------- 1 0.0 3.0 27 87
r 0.471024 1 2 cbr 1000 ------- 2 1.0 2.0 45 91
r 0.47104 0 1 tcp 1040 ------- 1 0.0 3.0 29 89
+ 0.47104 1 2 tcp 1040 ------- 1 0.0 3.0 29 89
- 0.471808 1 2 tcp 1040 ------- 1 0.0 3.0 28 88
r 0.471856 1 2 tcp 1040 ------- 1 0.0 3.0 16 75
+ 0.471856 2 3 tcp 1040 ------- 1 0.0 3.0 16 75
- 0.471856 2 3 tcp 1040 ------- 1 0.0 3.0 16 75
r 0.471872 0 1 tcp 1040 ------- 1 0.0 3.0 30 90
+ 0.471872 1 2 tcp 1040 ------- 1 0.0 3.0 30 90
- 0.47264 1 2 tcp 1040 ------- 1 0.0 3.0 29 89
r 0.472688 1 2 tcp 1040 ------- 1 0.0 3.0 17 76
+ 0.472688 2 3 tcp 1040 ------- 1 0.0 3.0 17 76
- 0.472688 2 3 tcp 1040 ------- 1 0.0 3.0 17 76
- 0.473472 1 2 tcp 1040 ------- 1 0.0 3.0 30 90
r 0.47352 1 2 tcp 1040 ------- 1 0.0 3.0 18 77
+ 0.47352 2 3 tcp 1040 ------- 1 0.0 3.0 18 77
- 0.47352 2 3 tcp 1040 ------- 1 0.0 3.0 18 77
r 0.474352 1 2 tcp 1040 ------- 1 0.0 3.0 19 78
+ 0.474352 2 3 tcp 1040 ------- 1 0.0 3.0 19 78
- 0.474352 2 3 tcp 1040 ------- 1 0.0 3.0 19 78
r 0.475184 1 2 tcp 1040 ------- 1 0.0 3.0 20 79
+ 0.475184 2 3 tcp 1040 ------- 1 0.0 3.0 20 79
- 0.475184 2 3 tcp 1040 ------- 1 0.0 3.0 20 79
+ 0.476 1 2 cbr 1000 ------- 2 1.0 2.0 47 93
- 0.476 1 2 cbr 1000 ------- 2 1.0 2.0 47 93
r 0.476016 1 2 tcp 1040 ------- 1 0.0 3.0 21 80
+ 0.476016 2 3 tcp 1040 ------- 1 0.0 3.0 21 80
- 0.476016 2 3 tcp 1040 ------- 1 0.0 3.0 21 80
r 0.476848 1 2 tcp 1040 ------- 1 0.0 3.0 22 81
+ 0.476848 2 3 tcp 1040 ------- 1 0.0 3.0 22 81
- 0.476848 2 3 tcp 1040 ------- 1 0.0 3.0 22 81
r 0.47768 1 2 tcp 1040 ------- 1 0.0 3.0 23 82
+ 0.47768 2 3 tcp 1040 ------- 1 0.0 3.0 23 82
- 0.47768 2 3 tcp 1040 ------- 1 0.0 3.0 23 82
r 0.478512 1 2 tcp 1040 ------- 1 0.0 3.0 24 83
+ 0.478512 2 3 tcp 1040 ------- 1 0.0 3.0 24 83
- 0.478512 2 3 tcp 1040 ------- 1 0.0 3.0 24 83
r 0.479344 1 2 tcp 1040 ------- 1 0.0 3.0 25 85
+ 0.479344 2 3 tcp 1040 ------- 1 0.0 3.0 25 85
- 0.479344 2 3 tcp 1040 ------- 1 0.0 3.0 25 85
r 0.480144 1 2 cbr 1000 ------- 2 1.0 2.0 46 92
r 0.480976 1 2 tcp 1040 ------- 1 0.0 3.0 26 86
+ 0.480976 2 3 tcp 1040 ------- 1 0.0 3.0 26 86
- 0.480976 2 3 tcp 1040 ------- 1 0.0 3.0 26 86
r 0.481056 2 3 tcp 1040 ------- 1 0.0 3.0 15 74
+ 0.481056 3 2 ack 40 ------- 1 3.0 0.0 15 94
- 0.481056 3 2 ack 40 ------- 1 3.0 0.0 15 94
r 0.481808 1 2 tcp 1040 ------- 1 0.0 3.0 27 87
+ 0.481808 2 3 tcp 1040 ------- 1 0.0 3.0 27 87
- 0.481808 2 3 tcp 1040 ------- 1 0.0 3.0 27 87
r 0.48264 1 2 tcp 1040 ------- 1 0.0 3.0 28 88
+ 0.48264 2 3 tcp 1040 ------- 1 0.0 3.0 28 88
- 0.48264 2 3 tcp 1040 ------- 1 0.0 3.0 28 88
r 0.482688 2 3 tcp 1040 ------- 1 0.0 3.0 16 75
+ 0.482688 3 2 ack 40 ------- 1 3.0 0.0 16 95
- 0.482688 3 2 ack 40 ------- 1 3.0 0.0 16 95
r 0.483472 1 2 tcp 1040 ------- 1 0.0 3.0 29 89
+ 0.483472 2 3 tcp 1040 ------- 1 0.0 3.0 29 89
- 0.483472 2 3 tcp 1040 ------- 1 0.0 3.0 29 89
r 0.48352 2 3 tcp 1040 ------- 1 0.0 3.0 17 76
+ 0.48352 3 2 ack 40 ------- 1 3.0 0.0 17 96
- 0.48352 3 2 ack 40 ------- 1 3.0 0.0 17 96
+ 0.484 1 2 cbr 1000 ------- 2 1.0 2.0 48 97
- 0.484 1 2 cbr 1000 ------- 2 1.0 2.0 48 97
r 0.484304 1 2 tcp 1040 ------- 1 0.0 3.0 30 90
+ 0.484304 2 3 tcp 1040 ------- 1 0.0 3.0 30 90
- 0.484304 2 3 tcp 1040 ------- 1 0.0 3.0 30 90
r 0.484352 2 3 tcp 1040 ------- 1 0.0 3.0 18 77
+ 0.484352 3 2 ack 40 ------- 1 3.0 0.0 18 98
- 0.484352 3 2 ack 40 ------- 1 3.0 0.0 18 98
r 0.485184 2 3 tcp 1040 ------- 1 0.0 3.0 19 78
+ 0.485184 3 2 ack 40 ------- 1 3.0 0.0 19 99
- 0.485184 3 2 ack 40 ------- 1 3.0 0.0 19 99
r 0.486016 2 3 tcp 1040 ------- 1 0.0 3.0 20 79
+ 0.486016 3 2 ack 40 ------- 1 3.0 0.0 20 100
- 0.486016 3 2 ack 40 ------- 1 3.0 0.0 20 100
r 0.4868 1 2 cbr 1000 ------- 2 1.0 2.0 47 93
r 0.486848 2 3 tcp 1040 ------- 1 0.0 3.0 21 80
+ 0.486848 3 2 ack 40 ------- 1 3.0 0.0 21 101
- 0.486848 3 2 ack 40 ------- 1 3.0 0.0 21 101
r 0.48768 2 3 tcp 1040 ------- 1 0.0 3.0 22 81
+ 0.48768 3 2 ack 40 ------- 1 3.0 0.0 22 102
- 0.48768 3 2 ack 40 ------- 1 3.0 0.0 22 102
r 0.488512 2 3 tcp 1040 ------- 1 0.0 3.0 23 82
+ 0.488512 3 2 ack 40 ------- 1 3.0 0.0 23 103
- 0.488512 3 2 ack 40 ------- 1 3.0 0.0 23 103
r 0.489344 2 3 tcp 1040 ------- 1 0.0 3.0 24 83
+ 0.489344 3 2 ack 40 ------- 1 3.0 0.0 24 104
- 0.489344 3 2 ack 40 ------- 1 3.0 0.0 24 104
r 0.490176 2 3 tcp 1040 ------- 1 0.0 3.0 25 85
+ 0.490176 3 2 ack 40 ------- 1 3.0 0.0 25 105
- 0.490176 3 2 ack 40 ------- 1 3.0 0.0 25 105
r 0.491088 3 2 ack 40 ------- 1 3.0 0.0 15 94
+ 0.491088 2 1 ack 40 ------- 1 3.0 0.0 15 94
- 0.491088 2 1 ack 40 ------- 1 3.0 0.0 15 94
r 0.491808 2 3 tcp 1040 ------- 1 0.0 3.0 26 86
+ 0.491808 3 2 ack 40 ------- 1 3.0 0.0 26 106
- 0.491808 3 2 ack 40 ------- 1 3.0 0.0 26 106
+ 0.492 1 2 cbr 1000 ------- 2 1.0 2.0 49 107
- 0.492 1 2 cbr 1000 ------- 2 1.0 2.0 49 107
r 0.49264 2 3 tcp 1040 ------- 1 0.0 3.0 27 87
+ 0.49264 3 2 ack 40 ------- 1 3.0 0.0 27 108
- 0.49264 3 2 ack 40 ------- 1 3.0 0.0 27 108
r 0.49272 3 2 ack 40 ------- 1 3.0 0.0 16 95
+ 0.49272 2 1 ack 40 ------- 1 3.0 0.0 16 95
- 0.49272 2 1 ack 40 ------- 1 3.0 0.0 16 95
r 0.493472 2 3 tcp 1040 ------- 1 0.0 3.0 28 88
+ 0.493472 3 2 ack 40 ------- 1 3.0 0.0 28 109
- 0.493472 3 2 ack 40 ------- 1 3.0 0.0 28 109
r 0.493552 3 2 ack 40 ------- 1 3.0 0.0 17 96
+ 0.493552 2 1 ack 40 ------- 1 3.0 0.0 17 96
- 0.493552 2 1 ack 40 ------- 1 3.0 0.0 17 96
r 0.494304 2 3 tcp 1040 ------- 1 0.0 3.0 29 89
+ 0.494304 3 2 ack 40 ------- 1 3.0 0.0 29 110
- 0.494304 3 2 ack 40 ------- 1 3.0 0.0 29 110
r 0.494384 3 2 ack 40 ------- 1 3.0 0.0 18 98
+ 0.494384 2 1 ack 40 ------- 1 3.0 0.0 18 98
- 0.494384 2 1 ack 40 ------- 1 3.0 0.0 18 98
r 0.4948 1 2 cbr 1000 ------- 2 1.0 2.0 48 97
r 0.495136 2 3 tcp 1040 ------- 1 0.0 3.0 30 90
+ 0.495136 3 2 ack 40 ------- 1 3.0 0.0 30 111
- 0.495136 3 2 ack 40 ------- 1 3.0 0.0 30 111
r 0.495216 3 2 ack 40 ------- 1 3.0 0.0 19 99
+ 0.495216 2 1 ack 40 ------- 1 3.0 0.0 19 99
- 0.495216 2 1 ack 40 ------- 1 3.0 0.0 19 99
r 0.496048 3 2 ack 40 ------- 1 3.0 0.0 20 100
+ 0.496048 2 1 ack 40 ------- 1 3.0 0.0 20 100
- 0.496048 2 1 ack 40 ------- 1 3.0 0.0 20 100
r 0.49688 3 2 ack 40 ------- 1 3.0 0.0 21 101
+ 0.49688 2 1 ack 40 ------- 1 3.0 0.0 21 101
- 0.49688 2 1 ack 40 ------- 1 3.0 0.0 21 101
r 0.497712 3 2 ack 40 ------- 1 3.0 0.0 22 102
+ 0.497712 2 1 ack 40 ------- 1 3.0 0.0 22 102
- 0.497712 2 1 ack 40 ------- 1 3.0 0.0 22 102
r 0.498544 3 2 ack 40 ------- 1 3.0 0.0 23 103
+ 0.498544 2 1 ack 40 ------- 1 3.0 0.0 23 103
- 0.498544 2 1 ack 40 ------- 1 3.0 0.0 23 103
r 0.499376 3 2 ack 40 ------- 1 3.0 0.0 24 104
+ 0.499376 2 1 ack 40 ------- 1 3.0 0.0 24 104
- 0.499376 2 1 ack 40 ------- 1 3.0 0.0 24 104
+ 0.5 1 2 cbr 1000 ------- 2 1.0 2.0 50 112
- 0.5 1 2 cbr 1000 ------- 2 1.0 2.0 50 112
r 0.500208 3 2 ack 40 ------- 1 3.0 0.0 25 105
+ 0.500208 2 1 ack 40 ------- 1 3.0 0.0 25 105
- 0.500208 2 1 ack 40 ------- 1 3.0 0.0 25 105
r 0.50112 2 1 ack 40 ------- 1 3.0 0.0 15 94
+ 0.50112 1 0 ack 40 ------- 1 3.0 0.0 15 94
- 0.50112 1 0 ack 40 ------- 1 3.0 0.0 15 94
r 0.50184 3 2 ack 40 ------- 1 3.0 0.0 26 106
+ 0.50184 2 1 ack 40 ------- 1 3.0 0.0 26 106
- 0.50184 2 1 ack 40 ------- 1 3.0 0.0 26 106
r 0.502672 3 2 ack 40 ------- 1 3.0 0.0 27 108
+ 0.502672 2 1 ack 40 ------- 1 3.0 0.0 27 108
- 0.502672 2 1 ack 40 ------- 1 3.0 0.0 27 108
r 0.502752 2 1 ack 40 ------- 1 3.0 0.0 16 95
+ 0.502752 1 0 ack 40 ------- 1 3.0 0.0 16 95
- 0.502752 1 0 ack 40 ------- 1 3.0 0.0 16 95
r 0.5028 1 2 cbr 1000 ------- 2 1.0 2.0 49 107
r 0.503504 3 2 ack 40 ------- 1 3.0 0.0 28 109
+ 0.503504 2 1 ack 40 ------- 1 3.0 0.0 28 109
- 0.503504 2 1 ack 40 ------- 1 3.0 0.0 28 109
r 0.503584 2 1 ack 40 ------- 1 3.0 0.0 17 96
+ 0.503584 1 0 ack 40 ------- 1 3.0 0.0 17 96
- 0.503584 1 0 ack 40 ------- 1 3.0 0.0 17 96