+ 0.1 1 2 cbr 1000 ------- 0 1.0 2.0 0 0
- 0.1 1 2 cbr 1000 ------- 0 1.0 2.0 0 0
+ 0.101 1 2 cbr 1000 ------- 0 1.0 2.0 1 1
- 0.101 1 2 cbr 1000 ------- 0 1.0 2.0 1 1
+ 0.102 1 2 cbr 1000 ------- 0 1.0 2.0 2 2
- 0.102 1 2 cbr 1000 ------- 0 1.0 2.0 2 2
+ 0.103 1 2 cbr 1000 ------- 0 1.0 2.0 3 3
- 0.103 1 2 cbr 1000 ------- 0 1.0 2.0 3 3
+ 0.104 1 2 cbr 1000 ------- 0 1.0 2.0 4 4
- 0.104 1 2 cbr 1000 ------- 0 1.0 2.0 4 4
+ 0.105 1 2 cbr 1000 ------- 0 1.0 2.0 5 5
- 0.105 1 2 cbr 1000 ------- 0 1.0 2.0 5 5
+ 0.106 1 2 cbr 1000 ------- 0 1.0 2.0 6 6
- 0.106 1 2 cbr 1000 ------- 0 1.0 2.0 6 6
+ 0.107 1 2 cbr 1000 ------- 0 1.0 2.0 7 7
- 0.107 1 2 cbr 1000 ------- 0 1.0 2.0 7 7
+ 0.108 1 2 cbr 1000 ------- 0 1.0 2.0 8 8
- 0.108 1 2 cbr 1000 ------- 0 1.0 2.0 8 8
+ 0.109 1 2 cbr 1000 ------- 0 1.0 2.0 9 9
- 0.109 1 2 cbr 1000 ------- 0 1.0 2.0 9 9
+ 0.11 1 2 cbr 1000 ------- 0 1.0 2.0 10 10
- 0.11 1 2 cbr 1000 ------- 0 1.0 2.0 10 10
r 0.1108 1 2 cbr 1000 ------- 0 1.0 2.0 0 0
+ 0.111 1 2 cbr 1000 ------- 0 1.0 2.0 11 11
- 0.111 1 2 cbr 1000 ------- 0 1.0 2.0 11 11
r 0.1118 1 2 cbr 1000 ------- 0 1.0 2.0 1 1
+ 0.112 1 2 cbr 1000 ------- 0 1.0 2.0 12 12
- 0.112 1 2 cbr 1000 ------- 0 1.0 2.0 12 12
r 0.1128 1 2 cbr 1000 ------- 0 1.0 2.0 2 2
+ 0.113 1 2 cbr 1000 ------- 0 1.0 2.0 13 13
- 0.113 1 2 cbr 1000 ------- 0 1.0 2.0 13 13
r 0.1138 1 2 cbr 1000 ------- 0 1.0 2.0 3 3
+ 0.114 1 2 cbr 1000 ------- 0 1.0 2.0 14 14
- 0.114 1 2 cbr 1000 ------- 0 1.0 2.0 14 14
r 0.1148 1 2 cbr 1000 ------- 0 1.0 2.0 4 4
+ 0.115 1 2 cbr 1000 ------- 0 1.0 2.0 15 15
- 0.115 1 2 cbr 1000 ------- 0 1.0 2.0 15 15
r 0.1158 1 2 cbr 1000 ------- 0 1.0 2.0 5 5
+ 0.116 1 2 cbr 1000 ------- 0 1.0 2.0 16 16
- 0.116 1 2 cbr 1000 ------- 0 1.0 2.0 16 16
r 0.1168 1 2 cbr 1000 ------- 0 1.0 2.0 6 6
+ 0.117 1 2 cbr 1000 ------- 0 1.0 2.0 17 17
- 0.117 1 2 cbr 1000 ------- 0 1.0 2.0 17 17
r 0.1178 1 2 cbr 1000 ------- 0 1.0 2.0 7 7
+ 0.118 1 2 cbr 1000 ------- 0 1.0 2.0 18 18
- 0.118 1 2 cbr 1000 ------- 0 1.0 2.0 18 18
r 0.1188 1 2 cbr 1000 ------- 0 1.0 2.0 8 8
+ 0.119 1 2 cbr 1000 ------- 0 1.0 2.0 19 19
- 0.119 1 2 cbr 1000 ------- 0 1.0 2.0 19 19
r 0.1198 1 2 cbr 1000 ------- 0 1.0 2.0 9 9
+ 0.12 1 2 cbr 1000 ------- 0 1.0 2.0 20 20
- 0.12 1 2 cbr 1000 ------- 0 1.0 2.0 20 20
r 0.1208 1 2 cbr 1000 ------- 0 1.0 2.0 10 10
+ 0.121 1 2 cbr 1000 ------- 0 1.0 2.0 21 21
- 0.121 1 2 cbr 1000 ------- 0 1.0 2.0 21 21
r 0.1218 1 2 cbr 1000 ------- 0 1.0 2.0 11 11
+ 0.122 1 2 cbr 1000 ------- 0 1.0 2.0 22 22
- 0.122 1 2 cbr 1000 ------- 0 1.0 2.0 22 22
r 0.1228 1 2 cbr 1000 ------- 0 1.0 2.0 12 12
+ 0.123 1 2 cbr 1000 ------- 0 1.0 2.0 23 23
- 0.123 1 2 cbr 1000 ------- 0 1.0 2.0 23 23
r 0.1238 1 2 cbr 1000 ------- 0 1.0 2.0 13 13
+ 0.124 1 2 cbr 1000 ------- 0 1.0 2.0 24 24
- 0.124 1 2 cbr 1000 ------- 0 1.0 2.0 24 24
r 0.1248 1 2 cbr 1000 ------- 0 1.0 2.0 14 14
+ 0.125 1 2 cbr 1000 ------- 0 1.0 2.0 25 25
- 0.125 1 2 cbr 1000 ------- 0 1.0 2.0 25 25
r 0.1258 1 2 cbr 1000 ------- 0 1.0 2.0 15 15
+ 0.126 1 2 cbr 1000 ------- 0 1.0 2.0 26 26
- 0.126 1 2 cbr 1000 ------- 0 1.0 2.0 26 26
r 0.1268 1 2 cbr 1000 ------- 0 1.0 2.0 16 16
+ 0.127 1 2 cbr 1000 ------- 0 1.0 2.0 27 27
- 0.127 1 2 cbr 1000 ------- 0 1.0 2.0 27 27
r 0.1278 1 2 cbr 1000 ------- 0 1.0 2.0 17 17
+ 0.128 1 2 cbr 1000 ------- 0 1.0 2.0 28 28
- 0.128 1 2 cbr 1000 ------- 0 1.0 2.0 28 28
r 0.1288 1 2 cbr 1000 ------- 0 1.0 2.0 18 18
+ 0.129 1 2 cbr 1000 ------- 0 1.0 2.0 29 29
- 0.129 1 2 cbr 1000 ------- 0 1.0 2.0 29 29
r 0.1298 1 2 cbr 1000 ------- 0 1.0 2.0 19 19
+ 0.13 1 2 cbr 1000 ------- 0 1.0 2.0 30 30
- 0.13 1 2 cbr 1000 ------- 0 1.0 2.0 30 30
r 0.1308 1 2 cbr 1000 ------- 0 1.0 2.0 20 20
+ 0.131 1 2 cbr 1000 ------- 0 1.0 2.0 31 31
- 0.131 1 2 cbr 1000 ------- 0 1.0 2.0 31 31
r 0.1318 1 2 cbr 1000 ------- 0 1.0 2.0 21 21
+ 0.132 1 2 cbr 1000 ------- 0 1.0 2.0 32 32
- 0.132 1 2 cbr 1000 ------- 0 1.0 2.0 32 32
r 0.1328 1 2 cbr 1000 ------- 0 1.0 2.0 22 22
+ 0.133 1 2 cbr 1000 ------- 0 1.0 2.0 33 33
- 0.133 1 2 cbr 1000 ------- 0 1.0 2.0 33 33
r 0.1338 1 2 cbr 1000 ------- 0 1.0 2.0 23 23
+ 0.134 1 2 cbr 1000 ------- 0 1.0 2.0 34 34
- 0.134 1 2 cbr 1000 ------- 0 1.0 2.0 34 34
r 0.1348 1 2 cbr 1000 ------- 0 1.0 2.0 24 24
+ 0.135 1 2 cbr 1000 ------- 0 1.0 2.0 35 35
- 0.135 1 2 cbr 1000 ------- 0 1.0 2.0 35 35
r 0.1358 1 2 cbr 1000 ------- 0 1.0 2.0 25 25
+ 0.136 1 2 cbr 1000 ------- 0 1.0 2.0 36 36
- 0.136 1 2 cbr 1000 ------- 0 1.0 2.0 36 36
r 0.1368 1 2 cbr 1000 ------- 0 1.0 2.0 26 26
+ 0.137 1 2 cbr 1000 ------- 0 1.0 2.0 37 37
- 0.137 1 2 cbr 1000 ------- 0 1.0 2.0 37 37
r 0.1378 1 2 cbr 1000 ------- 0 1.0 2.0 27 27
+ 0.138 1 2 cbr 1000 ------- 0 1.0 2.0 38 38
- 0.138 1 2 cbr 1000 ------- 0 1.0 2.0 38 38
r 0.1388 1 2 cbr 1000 ------- 0 1.0 2.0 28 28
+ 0.139 1 2 cbr 1000 ------- 0 1.0 2.0 39 39
- 0.139 1 2 cbr 1000 ------- 0 1.0 2.0 39 39
r 0.1398 1 2 cbr 1000 ------- 0 1.0 2.0 29 29
+ 0.14 1 2 cbr 1000 ------- 0 1.0 2.0 40 40
- 0.14 1 2 cbr 1000 ------- 0 1.0 2.0 40 40
r 0.1408 1 2 cbr 1000 ------- 0 1.0 2.0 30 30
+ 0.141 1 2 cbr 1000 ------- 0 1.0 2.0 41 41
- 0.141 1 2 cbr 1000 ------- 0 1.0 2.0 41 41
r 0.1418 1 2 cbr 1000 ------- 0 1.0 2.0 31 31
+ 0.142 1 2 cbr 1000 ------- 0 1.0 2.0 42 42
- 0.142 1 2 cbr 1000 ------- 0 1.0 2.0 42 42
r 0.1428 1 2 cbr 1000 ------- 0 1.0 2.0 32 32
+ 0.143 1 2 cbr 1000 ------- 0 1.0 2.0 43 43
- 0.143 1 2 cbr 1000 ------- 0 1.0 2.0 43 43
r 0.1438 1 2 cbr 1000 ------- 0 1.0 2.0 33 33
+ 0.144 1 2 cbr 1000 ------- 0 1.0 2.0 44 44
- 0.144 1 2 cbr 1000 ------- 0 1.0 2.0 44 44
r 0.1448 1 2 cbr 1000 ------- 0 1.0 2.0 34 34
+ 0.145 1 2 cbr 1000 ------- 0 1.0 2.0 45 45
- 0.145 1 2 cbr 1000 ------- 0 1.0 2.0 45 45
r 0.1458 1 2 cbr 1000 ------- 0 1.0 2.0 35 35
+ 0.146 1 2 cbr 1000 ------- 0 1.0 2.0 46 46
- 0.146 1 2 cbr 1000 ------- 0 1.0 2.0 46 46
r 0.1468 1 2 cbr 1000 ------- 0 1.0 2.0 36 36
+ 0.147 1 2 cbr 1000 ------- 0 1.0 2.0 47 47
- 0.147 1 2 cbr 1000 ------- 0 1.0 2.0 47 47
r 0.1478 1 2 cbr 1000 ------- 0 1.0 2.0 37 37
+ 0.148 1 2 cbr 1000 ------- 0 1.0 2.0 48 48
- 0.148 1 2 cbr 1000 ------- 0 1.0 2.0 48 48
r 0.1488 1 2 cbr 1000 ------- 0 1.0 2.0 38 38
+ 0.149 1 2 cbr 1000 ------- 0 1.0 2.0 49 49
- 0.149 1 2 cbr 1000 ------- 0 1.0 2.0 49 49
r 0.1498 1 2 cbr 1000 ------- 0 1.0 2.0 39 39
+ 0.15 1 2 cbr 1000 ------- 0 1.0 2.0 50 50
- 0.15 1 2 cbr 1000 ------- 0 1.0 2.0 50 50
r 0.1508 1 2 cbr 1000 ------- 0 1.0 2.0 40 40
+ 0.151 1 2 cbr 1000 ------- 0 1.0 2.0 51 51
- 0.151 1 2 cbr 1000 ------- 0 1.0 2.0 51 51
r 0.1518 1 2 cbr 1000 ------- 0 1.0 2.0 41 41
+ 0.152 1 2 cbr 1000 ------- 0 1.0 2.0 52 52
- 0.152 1 2 cbr 1000 ------- 0 1.0 2.0 52 52
r 0.1528 1 2 cbr 1000 ------- 0 1.0 2.0 42 42
+ 0.153 1 2 cbr 1000 ------- 0 1.0 2.0 53 53
- 0.153 1 2 cbr 1000 ------- 0 1.0 2.0 53 53
r 0.1538 1 2 cbr 1000 ------- 0 1.0 2.0 43 43
+ 0.154 1 2 cbr 1000 ------- 0 1.0 2.0 54 54
- 0.154 1 2 cbr 1000 ------- 0 1.0 2.0 54 54
r 0.1548 1 2 cbr 1000 ------- 0 1.0 2.0 44 44
+ 0.155 1 2 cbr 1000 ------- 0 1.0 2.0 55 55
- 0.155 1 2 cbr 1000 ------- 0 1.0 2.0 55 55
r 0.1558 1 2 cbr 1000 ------- 0 1.0 2.0 45 45
+ 0.156 1 2 cbr 1000 ------- 0 1.0 2.0 56 56
- 0.156 1 2 cbr 1000 ------- 0 1.0 2.0 56 56
r 0.1568 1 2 cbr 1000 ------- 0 1.0 2.0 46 46
+ 0.157 1 2 cbr 1000 ------- 0 1.0 2.0 57 57
- 0.157 1 2 cbr 1000 ------- 0 1.0 2.0 57 57
r 0.1578 1 2 cbr 1000 ------- 0 1.0 2.0 47 47
+ 0.158 1 2 cbr 1000 ------- 0 1.0 2.0 58 58
- 0.158 1 2 cbr 1000 ------- 0 1.0 2.0 58 58
r 0.1588 1 2 cbr 1000 ------- 0 1.0 2.0 48 48
+ 0.159 1 2 cbr 1000 ------- 0 1.0 2.0 59 59
- 0.159 1 2 cbr 1000 ------- 0 1.0 2.0 59 59
r 0.1598 1 2 cbr 1000 ------- 0 1.0 2.0 49 49
+ 0.16 1 2 cbr 1000 ------- 0 1.0 2.0 60 60
- 0.16 1 2 cbr 1000 ------- 0 1.0 2.0 60 60
r 0.1608 1 2 cbr 1000 ------- 0 1.0 2.0 50 50
+ 0.161 1 2 cbr 1000 ------- 0 1.0 2.0 61 61
- 0.161 1 2 cbr 1000 ------- 0 1.0 2.0 61 61
r 0.1618 1 2 cbr 1000 ------- 0 1.0 2.0 51 51
+ 0.162 1 2 cbr 1000 ------- 0 1.0 2.0 62 62
- 0.162 1 2 cbr 1000 ------- 0 1.0 2.0 62 62
r 0.1628 1 2 cbr 1000 ------- 0 1.0 2.0 52 52
+ 0.163 1 2 cbr 1000 ------- 0 1.0 2.0 63 63
- 0.163 1 2 cbr 1000 ------- 0 1.0 2.0 63 63
r 0.1638 1 2 cbr 1000 ------- 0 1.0 2.0 53 53
+ 0.164 1 2 cbr 1000 ------- 0 1.0 2.0 64 64
- 0.164 1 2 cbr 1000 ------- 0 1.0 2.0 64 64
r 0.1648 1 2 cbr 1000 ------- 0 1.0 2.0 54 54
+ 0.165 1 2 cbr 1000 ------- 0 1.0 2.0 65 65
- 0.165 1 2 cbr 1000 ------- 0 1.0 2.0 65 65
r 0.1658 1 2 cbr 1000 ------- 0 1.0 2.0 55 55
+ 0.166 1 2 cbr 1000 ------- 0 1.0 2.0 66 66
- 0.166 1 2 cbr 1000 ------- 0 1.0 2.0 66 66
r 0.1668 1 2 cbr 1000 ------- 0 1.0 2.0 56 56
+ 0.167 1 2 cbr 1000 ------- 0 1.0 2.0 67 67
- 0.167 1 2 cbr 1000 ------- 0 1.0 2.0 67 67
r 0.1678 1 2 cbr 1000 ------- 0 1.0 2.0 57 57
+ 0.168 1 2 cbr 1000 ------- 0 1.0 2.0 68 68
- 0.168 1 2 cbr 1000 ------- 0 1.0 2.0 68 68
r 0.1688 1 2 cbr 1000 ------- 0 1.0 2.0 58 58
+ 0.169 1 2 cbr 1000 ------- 0 1.0 2.0 69 69
- 0.169 1 2 cbr 1000 ------- 0 1.0 2.0 69 69
r 0.1698 1 2 cbr 1000 ------- 0 1.0 2.0 59 59
+ 0.17 1 2 cbr 1000 ------- 0 1.0 2.0 70 70
- 0.17 1 2 cbr 1000 ------- 0 1.0 2.0 70 70
r 0.1708 1 2 cbr 1000 ------- 0 1.0 2.0 60 60
+ 0.171 1 2 cbr 1000 ------- 0 1.0 2.0 71 71
- 0.171 1 2 cbr 1000 ------- 0 1.0 2.0 71 71
r 0.1718 1 2 cbr 1000 ------- 0 1.0 2.0 61 61
+ 0.172 1 2 cbr 1000 ------- 0 1.0 2.0 72 72
- 0.172 1 2 cbr 1000 ------- 0 1.0 2.0 72 72
r 0.1728 1 2 cbr 1000 ------- 0 1.0 2.0 62 62
+ 0.173 1 2 cbr 1000 ------- 0 1.0 2.0 73 73
- 0.173 1 2 cbr 1000 ------- 0 1.0 2.0 73 73
r 0.1738 1 2 cbr 1000 ------- 0 1.0 2.0 63 63
+ 0.174 1 2 cbr 1000 ------- 0 1.0 2.0 74 74
- 0.174 1 2 cbr 1000 ------- 0 1.0 2.0 74 74
r 0.1748 1 2 cbr 1000 ------- 0 1.0 2.0 64 64
+ 0.175 1 2 cbr 1000 ------- 0 1.0 2.0 75 75
- 0.175 1 2 cbr 1000 ------- 0 1.0 2.0 75 75
r 0.1758 1 2 cbr 1000 ------- 0 1.0 2.0 65 65
+ 0.176 1 2 cbr 1000 ------- 0 1.0 2.0 76 76
- 0.176 1 2 cbr 1000 ------- 0 1.0 2.0 76 76
r 0.1768 1 2 cbr 1000 ------- 0 1.0 2.0 66 66
+ 0.177 1 2 cbr 1000 ------- 0 1.0 2.0 77 77
- 0.177 1 2 cbr 1000 ------- 0 1.0 2.0 77 77
r 0.1778 1 2 cbr 1000 ------- 0 1.0 2.0 67 67
+ 0.178 1 2 cbr 1000 ------- 0 1.0 2.0 78 78
- 0.178 1 2 cbr 1000 ------- 0 1.0 2.0 78 78
r 0.1788 1 2 cbr 1000 ------- 0 1.0 2.0 68 68
+ 0.179 1 2 cbr 1000 ------- 0 1.0 2.0 79 79
- 0.179 1 2 cbr 1000 ------- 0 1.0 2.0 79 79
r 0.1798 1 2 cbr 1000 ------- 0 1.0 2.0 69 69
+ 0.18 1 2 cbr 1000 ------- 0 1.0 2.0 80 80
- 0.18 1 2 cbr 1000 ------- 0 1.0 2.0 80 80
r 0.1808 1 2 cbr 1000 ------- 0 1.0 2.0 70 70
+ 0.181 1 2 cbr 1000 ------- 0 1.0 2.0 81 81
- 0.181 1 2 cbr 1000 ------- 0 1.0 2.0 81 81
r 0.1818 1 2 cbr 1000 ------- 0 1.0 2.0 71 71
+ 0.182 1 2 cbr 1000 ------- 0 1.0 2.0 82 82
- 0.182 1 2 cbr 1000 ------- 0 1.0 2.0 82 82
r 0.1828 1 2 cbr 1000 ------- 0 1.0 2.0 72 72
+ 0.183 1 2 cbr 1000 ------- 0 1.0 2.0 83 83
- 0.183 1 2 cbr 1000 ------- 0 1.0 2.0 83 83
r 0.1838 1 2 cbr 1000 ------- 0 1.0 2.0 73 73
+ 0.184 1 2 cbr 1000 ------- 0 1.0 2.0 84 84
- 0.184 1 2 cbr 1000 ------- 0 1.0 2.0 84 84
r 0.1848 1 2 cbr 1000 ------- 0 1.0 2.0 74 74
+ 0.185 1 2 cbr 1000 ------- 0 1.0 2.0 85 85
- 0.185 1 2 cbr 1000 ------- 0 1.0 2.0 85 85
r 0.1858 1 2 cbr 1000 ------- 0 1.0 2.0 75 75
+ 0.186 1 2 cbr 1000 ------- 0 1.0 2.0 86 86
- 0.186 1 2 cbr 1000 ------- 0 1.0 2.0 86 86
r 0.1868 1 2 cbr 1000 ------- 0 1.0 2.0 76 76
+ 0.187 1 2 cbr 1000 ------- 0 1.0 2.0 87 87
- 0.187 1 2 cbr 1000 ------- 0 1.0 2.0 87 87
r 0.1878 1 2 cbr 1000 ------- 0 1.0 2.0 77 77
+ 0.188 1 2 cbr 1000 ------- 0 1.0 2.0 88 88
- 0.188 1 2 cbr 1000 ------- 0 1.0 2.0 88 88
r 0.1888 1 2 cbr 1000 ------- 0 1.0 2.0 78 78
+ 0.189 1 2 cbr 1000 ------- 0 1.0 2.0 89 89
- 0.189 1 2 cbr 1000 ------- 0 1.0 2.0 89 89
r 0.1898 1 2 cbr 1000 ------- 0 1.0 2.0 79 79
+ 0.19 1 2 cbr 1000 ------- 0 1.0 2.0 90 90
- 0.19 1 2 cbr 1000 ------- 0 1.0 2.0 90 90
r 0.1908 1 2 cbr 1000 ------- 0 1.0 2.0 80 80
+ 0.191 1 2 cbr 1000 ------- 0 1.0 2.0 91 91
- 0.191 1 2 cbr 1000 ------- 0 1.0 2.0 91 91
r 0.1918 1 2 cbr 1000 ------- 0 1.0 2.0 81 81
+ 0.192 1 2 cbr 1000 ------- 0 1.0 2.0 92 92
- 0.192 1 2 cbr 1000 ------- 0 1.0 2.0 92 92
r 0.1928 1 2 cbr 1000 ------- 0 1.0 2.0 82 82
+ 0.193 1 2 cbr 1000 ------- 0 1.0 2.0 93 93
- 0.193 1 2 cbr 1000 ------- 0 1.0 2.0 93 93
r 0.1938 1 2 cbr 1000 ------- 0 1.0 2.0 83 83
+ 0.194 1 2 cbr 1000 ------- 0 1.0 2.0 94 94
- 0.194 1 2 cbr 1000 ------- 0 1.0 2.0 94 94
r 0.1948 1 2 cbr 1000 ------- 0 1.0 2.0 84 84
+ 0.195 1 2 cbr 1000 ------- 0 1.0 2.0 95 95
- 0.195 1 2 cbr 1000 ------- 0 1.0 2.0 95 95
r 0.1958 1 2 cbr 1000 ------- 0 1.0 2.0 85 85
+ 0.196 1 2 cbr 1000 ------- 0 1.0 2.0 96 96
- 0.196 1 2 cbr 1000 ------- 0 1.0 2.0 96 96
r 0.1968 1 2 cbr 1000 ------- 0 1.0 2.0 86 86
+ 0.197 1 2 cbr 1000 ------- 0 1.0 2.0 97 97
- 0.197 1 2 cbr 1000 ------- 0 1.0 2.0 97 97
r 0.1978 1 2 cbr 1000 ------- 0 1.0 2.0 87 87
+ 0.198 1 2 cbr 1000 ------- 0 1.0 2.0 98 98
- 0.198 1 2 cbr 1000 ------- 0 1.0 2.0 98 98
r 0.1988 1 2 cbr 1000 ------- 0 1.0 2.0 88 88
+ 0.199 1 2 cbr 1000 ------- 0 1.0 2.0 99 99
- 0.199 1 2 cbr 1000 ------- 0 1.0 2.0 99 99
r 0.1998 1 2 cbr 1000 ------- 0 1.0 2.0 89 89
+ 0.2 0 1 tcp 40 ------- 1 0.0 3.0 0 100
- 0.2 0 1 tcp 40 ------- 1 0.0 3.0 0 100
+ 0.2 1 2 cbr 1000 ------- 0 1.0 2.0 100 101
- 0.2 1 2 cbr 1000 ------- 0 1.0 2.0 100 101
r 0.2008 1 2 cbr 1000 ------- 0 1.0 2.0 90 90
+ 0.201 1 2 cbr 1000 ------- 0 1.0 2.0 101 102
- 0.201 1 2 cbr 1000 ------- 0 1.0 2.0 101 102
r 0.2018 1 2 cbr 1000 ------- 0 1.0 2.0 91 91
+ 0.202 1 2 cbr 1000 ------- 0 1.0 2.0 102 103
- 0.202 1 2 cbr 1000 ------- 0 1.0 2.0 102 103
r 0.2028 1 2 cbr 1000 ------- 0 1.0 2.0 92 92
+ 0.203 1 2 cbr 1000 ------- 0 1.0 2.0 103 104
- 0.203 1 2 cbr 1000 ------- 0 1.0 2.0 103 104
r 0.2038 1 2 cbr 1000 ------- 0 1.0 2.0 93 93
+ 0.204 1 2 cbr 1000 ------- 0 1.0 2.0 104 105
- 0.204 1 2 cbr 1000 ------- 0 1.0 2.0 104 105
r 0.2048 1 2 cbr 1000 ------- 0 1.0 2.0 94 94
+ 0.205 1 2 cbr 1000 ------- 0 1.0 2.0 105 106
- 0.205 1 2 cbr 1000 ------- 0 1.0 2.0 105 106
r 0.2058 1 2 cbr 1000 ------- 0 1.0 2.0 95 95
+ 0.206 1 2 cbr 1000 ------- 0 1.0 2.0 106 107
- 0.206 1 2 cbr 1000 ------- 0 1.0 2.0 106 107
r 0.2068 1 2 cbr 1000 ------- 0 1.0 2.0 96 96
+ 0.207 1 2 cbr 1000 ------- 0 1.0 2.0 107 108
- 0.207 1 2 cbr 1000 ------- 0 1.0 2.0 107 108
r 0.2078 1 2 cbr 1000 ------- 0 1.0 2.0 97 97
+ 0.208 1 2 cbr 1000 ------- 0 1.0 2.0 108 109
- 0.208 1 2 cbr 1000 ------- 0 1.0 2.0 108 109
r 0.2088 1 2 cbr 1000 ------- 0 1.0 2.0 98 98
+ 0.209 1 2 cbr 1000 ------- 0 1.0 2.0 109 110
- 0.209 1 2 cbr 1000 ------- 0 1.0 2.0 109 110
r 0.2098 1 2 cbr 1000 ------- 0 1.0 2.0 99 99
+ 0.21 1 2 cbr 1000 ------- 0 1.0 2.0 110 111
- 0.21 1 2 cbr 1000 ------- 0 1.0 2.0 110 111
r 0.210032 0 1 tcp 40 ------- 1 0.0 3.0 0 100
+ 0.210032 1 2 tcp 40 ------- 1 0.0 3.0 0 100
r 0.2108 1 2 cbr 1000 ------- 0 1.0 2.0 100 101
- 0.2108 1 2 tcp 40 ------- 1 0.0 3.0 0 100
+ 0.211 1 2 cbr 1000 ------- 0 1.0 2.0 111 112
- 0.211 1 2 cbr 1000 ------- 0 1.0 2.0 111 112
r 0.2118 1 2 cbr 1000 ------- 0 1.0 2.0 101 102
+ 0.212 1 2 cbr 1000 ------- 0 1.0 2.0 112 113
- 0.212 1 2 cbr 1000 ------- 0 1.0 2.0 112 113
r 0.2128 1 2 cbr 1000 ------- 0 1.0 2.0 102 103
+ 0.213 1 2 cbr 1000 ------- 0 1.0 2.0 113 114
- 0.213 1 2 cbr 1000 ------- 0 1.0 2.0 113 114
r 0.2138 1 2 cbr 1000 ------- 0 1.0 2.0 103 104
+ 0.214 1 2 cbr 1000 ------- 0 1.0 2.0 114 115
- 0.214 1 2 cbr 1000 ------- 0 1.0 2.0 114 115
r 0.2148 1 2 cbr 1000 ------- 0 1.0 2.0 104 105
+ 0.215 1 2 cbr 1000 ------- 0 1.0 2.0 115 116
- 0.215 1 2 cbr 1000 ------- 0 1.0 2.0 115 116
r 0.2158 1 2 cbr 1000 ------- 0 1.0 2.0 105 106
+ 0.216 1 2 cbr 1000 ------- 0 1.0 2.0 116 117
- 0.216 1 2 cbr 1000 ------- 0 1.0 2.0 116 117
r 0.2168 1 2 cbr 1000 ------- 0 1.0 2.0 106 107
+ 0.217 1 2 cbr 1000 ------- 0 1.0 2.0 117 118
- 0.217 1 2 cbr 1000 ------- 0 1.0 2.0 117 118
r 0.2178 1 2 cbr 1000 ------- 0 1.0 2.0 107 108
+ 0.218 1 2 cbr 1000 ------- 0 1.0 2.0 118 119
- 0.218 1 2 cbr 1000 ------- 0 1.0 2.0 118 119
r 0.2188 1 2 cbr 1000 ------- 0 1.0 2.0 108 109
+ 0.219 1 2 cbr 1000 ------- 0 1.0 2.0 119 120
- 0.219 1 2 cbr 1000 ------- 0 1.0 2.0 119 120
r 0.2198 1 2 cbr 1000 ------- 0 1.0 2.0 109 110
+ 0.22 1 2 cbr 1000 ------- 0 1.0 2.0 120 121
- 0.22 1 2 cbr 1000 ------- 0 1.0 2.0 120 121
r 0.2208 1 2 cbr 1000 ------- 0 1.0 2.0 110 111
r 0.220832 1 2 tcp 40 ------- 1 0.0 3.0 0 100
+ 0.220832 2 3 tcp 40 ------- 1 0.0 3.0 0 100
- 0.220832 2 3 tcp 40 ------- 1 0.0 3.0 0 100
+ 0.221 1 2 cbr 1000 ------- 0 1.0 2.0 121 122
- 0.221 1 2 cbr 1000 ------- 0 1.0 2.0 121 122
r 0.2218 1 2 cbr 1000 ------- 0 1.0 2.0 111 112
+ 0.222 1 2 cbr 1000 ------- 0 1.0 2.0 122 123
- 0.222 1 2 cbr 1000 ------- 0 1.0 2.0 122 123
r 0.2228 1 2 cbr 1000 ------- 0 1.0 2.0 112 113
+ 0.223 1 2 cbr 1000 ------- 0 1.0 2.0 123 124
- 0.223 1 2 cbr 1000 ------- 0 1.0 2.0 123 124
r 0.2238 1 2 cbr 1000 ------- 0 1.0 2.0 113 114
+ 0.224 1 2 cbr 1000 ------- 0 1.0 2.0 124 125
- 0.224 1 2 cbr 1000 ------- 0 1.0 2.0 124 125
r 0.2248 1 2 cbr 1000 ------- 0 1.0 2.0 114 115
+ 0.225 1 2 cbr 1000 ------- 0 1.0 2.0 125 126
- 0.225 1 2 cbr 1000 ------- 0 1.0 2.0 125 126
r 0.2258 1 2 cbr 1000 ------- 0 1.0 2.0 115 116
+ 0.226 1 2 cbr 1000 ------- 0 1.0 2.0 126 127
- 0.226 1 2 cbr 1000 ------- 0 1.0 2.0 126 127
r 0.2268 1 2 cbr 1000 ------- 0 1.0 2.0 116 117
+ 0.227 1 2 cbr 1000 ------- 0 1.0 2.0 127 128
- 0.227 1 2 cbr 1000 ------- 0 1.0 2.0 127 128
r 0.2278 1 2 cbr 1000 ------- 0 1.0 2.0 117 118
+ 0.228 1 2 cbr 1000 ------- 0 1.0 2.0 128 129
- 0.228 1 2 cbr 1000 ------- 0 1.0 2.0 128 129
r 0.2288 1 2 cbr 1000 ------- 0 1.0 2.0 118 119
+ 0.229 1 2 cbr 1000 ------- 0 1.0 2.0 129 130
- 0.229 1 2 cbr 1000 ------- 0 1.0 2.0 129 130
r 0.2298 1 2 cbr 1000 ------- 0 1.0 2.0 119 120
+ 0.23 1 2 cbr 1000 ------- 0 1.0 2.0 130 131
- 0.23 1 2 cbr 1000 ------- 0 1.0 2.0 130 131
r 0.2308 1 2 cbr 1000 ------- 0 1.0 2.0 120 121
r 0.230864 2 3 tcp 40 ------- 1 0.0 3.0 0 100
+ 0.230864 3 2 ack 40 ------- 1 3.0 0.0 0 132
- 0.230864 3 2 ack 40 ------- 1 3.0 0.0 0 132
+ 0.231 1 2 cbr 1000 ------- 0 1.0 2.0 131 133
- 0.231 1 2 cbr 1000 ------- 0 1.0 2.0 131 133
r 0.2318 1 2 cbr 1000 ------- 0 1.0 2.0 121 122
+ 0.232 1 2 cbr 1000 ------- 0 1.0 2.0 132 134
- 0.232 1 2 cbr 1000 ------- 0 1.0 2.0 132 134
r 0.2328 1 2 cbr 1000 ------- 0 1.0 2.0 122 123
+ 0.233 1 2 cbr 1000 ------- 0 1.0 2.0 133 135
- 0.233 1 2 cbr 1000 ------- 0 1.0 2.0 133 135
r 0.2338 1 2 cbr 1000 ------- 0 1.0 2.0 123 124
+ 0.234 1 2 cbr 1000 ------- 0 1.0 2.0 134 136
- 0.234 1 2 cbr 1000 ------- 0 1.0 2.0 134 136
r 0.2348 1 2 cbr 1000 ------- 0 1.0 2.0 124 125
+ 0.235 1 2 cbr 1000 ------- 0 1.0 2.0 135 137
- 0.235 1 2 cbr 1000 ------- 0 1.0 2.0 135 137
r 0.2358 1 2 cbr 1000 ------- 0 1.0 2.0 125 126
+ 0.236 1 2 cbr 1000 ------- 0 1.0 2.0 136 138
- 0.236 1 2 cbr 1000 ------- 0 1.0 2.0 136 138
r 0.2368 1 2 cbr 1000 ------- 0 1.0 2.0 126 127
+ 0.237 1 2 cbr 1000 ------- 0 1.0 2.0 137 139
- 0.237 1 2 cbr 1000 ------- 0 1.0 2.0 137 139
r 0.2378 1 2 cbr 1000 ------- 0 1.0 2.0 127 128
+ 0.238 1 2 cbr 1000 ------- 0 1.0 2.0 138 140
- 0.238 1 2 cbr 1000 ------- 0 1.0 2.0 138 140
r 0.2388 1 2 cbr 1000 ------- 0 1.0 2.0 128 129
+ 0.239 1 2 cbr 1000 ------- 0 1.0 2.0 139 141
- 0.239 1 2 cbr 1000 ------- 0 1.0 2.0 139 141
r 0.2398 1 2 cbr 1000 ------- 0 1.0 2.0 129 130
+ 0.24 1 2 cbr 1000 ------- 0 1.0 2.0 140 142
- 0.24 1 2 cbr 1000 ------- 0 1.0 2.0 140 142
r 0.2408 1 2 cbr 1000 ------- 0 1.0 2.0 130 131
r 0.240896 3 2 ack 40 ------- 1 3.0 0.0 0 132
+ 0.240896 2 1 ack 40 ------- 1 3.0 0.0 0 132
- 0.240896 2 1 ack 40 ------- 1 3.0 0.0 0 132
+ 0.241 1 2 cbr 1000 ------- 0 1.0 2.0 141 143
- 0.241 1 2 cbr 1000 ------- 0 1.0 2.0 141 143
r 0.2418 1 2 cbr 1000 ------- 0 1.0 2.0 131 133
+ 0.242 1 2 cbr 1000 ------- 0 1.0 2.0 142 144
- 0.242 1 2 cbr 1000 ------- 0 1.0 2.0 142 144
r 0.2428 1 2 cbr 1000 ------- 0 1.0 2.0 132 134
+ 0.243 1 2 cbr 1000 ------- 0 1.0 2.0 143 145
- 0.243 1 2 cbr 1000 ------- 0 1.0 2.0 143 145
r 0.2438 1 2 cbr 1000 ------- 0 1.0 2.0 133 135
+ 0.244 1 2 cbr 1000 ------- 0 1.0 2.0 144 146
- 0.244 1 2 cbr 1000 ------- 0 1.0 2.0 144 146
r 0.2448 1 2 cbr 1000 ------- 0 1.0 2.0 134 136
+ 0.245 1 2 cbr 1000 ------- 0 1.0 2.0 145 147
- 0.245 1 2 cbr 1000 ------- 0 1.0 2.0 145 147
r 0.2458 1 2 cbr 1000 ------- 0 1.0 2.0 135 137
+ 0.246 1 2 cbr 1000 ------- 0 1.0 2.0 146 148
- 0.246 1 2 cbr 1000 ------- 0 1.0 2.0 146 148
r 0.2468 1 2 cbr 1000 ------- 0 1.0 2.0 136 138
+ 0.247 1 2 cbr 1000 ------- 0 1.0 2.0 147 149
- 0.247 1 2 cbr 1000 ------- 0 1.0 2.0 147 149
r 0.2478 1 2 cbr 1000 ------- 0 1.0 2.0 137 139
+ 0.248 1 2 cbr 1000 ------- 0 1.0 2.0 148 150
- 0.248 1 2 cbr 1000 ------- 0 1.0 2.0 148 150
r 0.2488 1 2 cbr 1000 ------- 0 1.0 2.0 138 140
+ 0.249 1 2 cbr 1000 ------- 0 1.0 2.0 149 151
- 0.249 1 2 cbr 1000 ------- 0 1.0 2.0 149 151
r 0.2498 1 2 cbr 1000 ------- 0 1.0 2.0 139 141
+ 0.25 1 2 cbr 1000 ------- 0 1.0 2.0 150 152
- 0.25 1 2 cbr 1000 ------- 0 1.0 2.0 150 152
r 0.2508 1 2 cbr 1000 ------- 0 1.0 2.0 140 142
r 0.250928 2 1 ack 40 ------- 1 3.0 0.0 0 132
+ 0.250928 1 0 ack 40 ------- 1 3.0 0.0 0 132
- 0.250928 1 0 ack 40 ------- 1 3.0 0.0 0 132
+ 0.251 1 2 cbr 1000 ------- 0 1.0 2.0 151 153
- 0.251 1 2 cbr 1000 ------- 0 1.0 2.0 151 153
r 0.2518 1 2 cbr 1000 ------- 0 1.0 2.0 141 143
+ 0.252 1 2 cbr 1000 ------- 0 1.0 2.0 152 154
- 0.252 1 2 cbr 1000 ------- 0 1.0 2.0 152 154
r 0.2528 1 2 cbr 1000 ------- 0 1.0 2.0 142 144
+ 0.253 1 2 cbr 1000 ------- 0 1.0 2.0 153 155
- 0.253 1 2 cbr 1000 ------- 0 1.0 2.0 153 155
r 0.2538 1 2 cbr 1000 ------- 0 1.0 2.0 143 145
+ 0.254 1 2 cbr 1000 ------- 0 1.0 2.0 154 156
- 0.254 1 2 cbr 1000 ------- 0 1.0 2.0 154 156
r 0.2548 1 2 cbr 1000 ------- 0 1.0 2.0 144 146
+ 0.255 1 2 cbr 1000 ------- 0 1.0 2.0 155 157
- 0.255 1 2 cbr 1000 ------- 0 1.0 2.0 155 157
r 0.2558 1 2 cbr 1000 ------- 0 1.0 2.0 145 147
+ 0.256 1 2 cbr 1000 ------- 0 1.0 2.0 156 158
- 0.256 1 2 cbr 1000 ------- 0 1.0 2.0 156 158
r 0.2568 1 2 cbr 1000 ------- 0 1.0 2.0 146 148
+ 0.257 1 2 cbr 1000 ------- 0 1.0 2.0 157 159
- 0.257 1 2 cbr 1000 ------- 0 1.0 2.0 157 159
r 0.2578 1 2 cbr 1000 ------- 0 1.0 2.0 147 149
+ 0.258 1 2 cbr 1000 ------- 0 1.0 2.0 158 160
- 0.258 1 2 cbr 1000 ------- 0 1.0 2.0 158 160
r 0.2588 1 2 cbr 1000 ------- 0 1.0 2.0 148 150
+ 0.259 1 2 cbr 1000 ------- 0 1.0 2.0 159 161
- 0.259 1 2 cbr 1000 ------- 0 1.0 2.0 159 161
r 0.2598 1 2 cbr 1000 ------- 0 1.0 2.0 149 151
+ 0.26 1 2 cbr 1000 ------- 0 1.0 2.0 160 162
- 0.26 1 2 cbr 1000 ------- 0 1.0 2.0 160 162
r 0.2608 1 2 cbr 1000 ------- 0 1.0 2.0 150 152
r 0.26096 1 0 ack 40 ------- 1 3.0 0.0 0 132
+ 0.26096 0 1 tcp 1040 ------- 1 0.0 3.0 1 163
- 0.26096 0 1 tcp 1040 ------- 1 0.0 3.0 1 163
+ 0.26096 0 1 tcp 1040 ------- 1 0.0 3.0 2 164
+ 0.261 1 2 cbr 1000 ------- 0 1.0 2.0 161 165
- 0.261 1 2 cbr 1000 ------- 0 1.0 2.0 161 165
- 0.261792 0 1 tcp 1040 ------- 1 0.0 3.0 2 164
r 0.2618 1 2 cbr 1000 ------- 0 1.0 2.0 151 153
+ 0.262 1 2 cbr 1000 ------- 0 1.0 2.0 162 166
- 0.262 1 2 cbr 1000 ------- 0 1.0 2.0 162 166
r 0.2628 1 2 cbr 1000 ------- 0 1.0 2.0 152 154
+ 0.263 1 2 cbr 1000 ------- 0 1.0 2.0 163 167
- 0.263 1 2 cbr 1000 ------- 0 1.0 2.0 163 167
r 0.2638 1 2 cbr 1000 ------- 0 1.0 2.0 153 155
+ 0.264 1 2 cbr 1000 ------- 0 1.0 2.0 164 168
- 0.264 1 2 cbr 1000 ------- 0 1.0 2.0 164 168
r 0.2648 1 2 cbr 1000 ------- 0 1.0 2.0 154 156
+ 0.265 1 2 cbr 1000 ------- 0 1.0 2.0 165 169
- 0.265 1 2 cbr 1000 ------- 0 1.0 2.0 165 169
r 0.2658 1 2 cbr 1000 ------- 0 1.0 2.0 155 157
+ 0.266 1 2 cbr 1000 ------- 0 1.0 2.0 166 170
- 0.266 1 2 cbr 1000 ------- 0 1.0 2.0 166 170
r 0.2668 1 2 cbr 1000 ------- 0 1.0 2.0 156 158
+ 0.267 1 2 cbr 1000 ------- 0 1.0 2.0 167 171
- 0.267 1 2 cbr 1000 ------- 0 1.0 2.0 167 171
r 0.2678 1 2 cbr 1000 ------- 0 1.0 2.0 157 159
+ 0.268 1 2 cbr 1000 ------- 0 1.0 2.0 168 172
- 0.268 1 2 cbr 1000 ------- 0 1.0 2.0 168 172
r 0.2688 1 2 cbr 1000 ------- 0 1.0 2.0 158 160
+ 0.269 1 2 cbr 1000 ------- 0 1.0 2.0 169 173
- 0.269 1 2 cbr 1000 ------- 0 1.0 2.0 169 173
r 0.2698 1 2 cbr 1000 ------- 0 1.0 2.0 159 161
+ 0.27 1 2 cbr 1000 ------- 0 1.0 2.0 170 174
- 0.27 1 2 cbr 1000 ------- 0 1.0 2.0 170 174
r 0.2708 1 2 cbr 1000 ------- 0 1.0 2.0 160 162
+ 0.271 1 2 cbr 1000 ------- 0 1.0 2.0 171 175
- 0.271 1 2 cbr 1000 ------- 0 1.0 2.0 171 175
r 0.271792 0 1 tcp 1040 ------- 1 0.0 3.0 1 163
+ 0.271792 1 2 tcp 1040 ------- 1 0.0 3.0 1 163
r 0.2718 1 2 cbr 1000 ------- 0 1.0 2.0 161 165
- 0.2718 1 2 tcp 1040 ------- 1 0.0 3.0 1 163
+ 0.272 1 2 cbr 1000 ------- 0 1.0 2.0 172 176
r 0.272624 0 1 tcp 1040 ------- 1 0.0 3.0 2 164
+ 0.272624 1 2 tcp 1040 ------- 1 0.0 3.0 2 164
- 0.272632 1 2 cbr 1000 ------- 0 1.0 2.0 172 176
r 0.2728 1 2 cbr 1000 ------- 0 1.0 2.0 162 166
+ 0.273 1 2 cbr 1000 ------- 0 1.0 2.0 173 177
- 0.273432 1 2 tcp 1040 ------- 1 0.0 3.0 2 164
r 0.2738 1 2 cbr 1000 ------- 0 1.0 2.0 163 167
+ 0.274 1 2 cbr 1000 ------- 0 1.0 2.0 174 178
- 0.274264 1 2 cbr 1000 ------- 0 1.0 2.0 173 177
r 0.2748 1 2 cbr 1000 ------- 0 1.0 2.0 164 168
+ 0.275 1 2 cbr 1000 ------- 0 1.0 2.0 175 179
- 0.275064 1 2 cbr 1000 ------- 0 1.0 2.0 174 178
r 0.2758 1 2 cbr 1000 ------- 0 1.0 2.0 165 169
- 0.275864 1 2 cbr 1000 ------- 0 1.0 2.0 175 179
+ 0.276 1 2 cbr 1000 ------- 0 1.0 2.0 176 180
- 0.276664 1 2 cbr 1000 ------- 0 1.0 2.0 176 180
r 0.2768 1 2 cbr 1000 ------- 0 1.0 2.0 166 170
+ 0.277 1 2 cbr 1000 ------- 0 1.0 2.0 177 181
- 0.277464 1 2 cbr 1000 ------- 0 1.0 2.0 177 181
r 0.2778 1 2 cbr 1000 ------- 0 1.0 2.0 167 171
+ 0.278 1 2 cbr 1000 ------- 0 1.0 2.0 178 182
- 0.278264 1 2 cbr 1000 ------- 0 1.0 2.0 178 182
r 0.2788 1 2 cbr 1000 ------- 0 1.0 2.0 168 172
+ 0.279 1 2 cbr 1000 ------- 0 1.0 2.0 179 183
- 0.279064 1 2 cbr 1000 ------- 0 1.0 2.0 179 183
r 0.2798 1 2 cbr 1000 ------- 0 1.0 2.0 169 173
+ 0.28 1 2 cbr 1000 ------- 0 1.0 2.0 180 184
- 0.28 1 2 cbr 1000 ------- 0 1.0 2.0 180 184
r 0.2808 1 2 cbr 1000 ------- 0 1.0 2.0 170 174
+ 0.281 1 2 cbr 1000 ------- 0 1.0 2.0 181 185
- 0.281 1 2 cbr 1000 ------- 0 1.0 2.0 181 185
r 0.2818 1 2 cbr 1000 ------- 0 1.0 2.0 171 175
+ 0.282 1 2 cbr 1000 ------- 0 1.0 2.0 182 186
- 0.282 1 2 cbr 1000 ------- 0 1.0 2.0 182 186
r 0.282632 1 2 tcp 1040 ------- 1 0.0 3.0 1 163
+ 0.282632 2 3 tcp 1040 ------- 1 0.0 3.0 1 163
- 0.282632 2 3 tcp 1040 ------- 1 0.0 3.0 1 163
+ 0.283 1 2 cbr 1000 ------- 0 1.0 2.0 183 187
- 0.283 1 2 cbr 1000 ------- 0 1.0 2.0 183 187
r 0.283432 1 2 cbr 1000 ------- 0 1.0 2.0 172 176
+ 0.284 1 2 cbr 1000 ------- 0 1.0 2.0 184 188
- 0.284 1 2 cbr 1000 ------- 0 1.0 2.0 184 188
r 0.284264 1 2 tcp 1040 ------- 1 0.0 3.0 2 164
+ 0.284264 2 3 tcp 1040 ------- 1 0.0 3.0 2 164
- 0.284264 2 3 tcp 1040 ------- 1 0.0 3.0 2 164
+ 0.285 1 2 cbr 1000 ------- 0 1.0 2.0 185 189
- 0.285 1 2 cbr 1000 ------- 0 1.0 2.0 185 189
r 0.285064 1 2 cbr 1000 ------- 0 1.0 2.0 173 177
r 0.285864 1 2 cbr 1000 ------- 0 1.0 2.0 174 178
+ 0.286 1 2 cbr 1000 ------- 0 1.0 2.0 186 190
- 0.286 1 2 cbr 1000 ------- 0 1.0 2.0 186 190
r 0.286664 1 2 cbr 1000 ------- 0 1.0 2.0 175 179
+ 0.287 1 2 cbr 1000 ------- 0 1.0 2.0 187 191
- 0.287 1 2 cbr 1000 ------- 0 1.0 2.0 187 191
r 0.287464 1 2 cbr 1000 ------- 0 1.0 2.0 176 180
+ 0.288 1 2 cbr 1000 ------- 0 1.0 2.0 188 192
- 0.288 1 2 cbr 1000 ------- 0 1.0 2.0 188 192
r 0.288264 1 2 cbr 1000 ------- 0 1.0 2.0 177 181
+ 0.289 1 2 cbr 1000 ------- 0 1.0 2.0 189 193
- 0.289 1 2 cbr 1000 ------- 0 1.0 2.0 189 193
r 0.289064 1 2 cbr 1000 ------- 0 1.0 2.0 178 182
r 0.289864 1 2 cbr 1000 ------- 0 1.0 2.0 179 183
+ 0.29 1 2 cbr 1000 ------- 0 1.0 2.0 190 194
- 0.29 1 2 cbr 1000 ------- 0 1.0 2.0 190 194
r 0.2908 1 2 cbr 1000 ------- 0 1.0 2.0 180 184
+ 0.291 1 2 cbr 1000 ------- 0 1.0 2.0 191 195
- 0.291 1 2 cbr 1000 ------- 0 1.0 2.0 191 195
r 0.2918 1 2 cbr 1000 ------- 0 1.0 2.0 181 185
+ 0.292 1 2 cbr 1000 ------- 0 1.0 2.0 192 196
- 0.292 1 2 cbr 1000 ------- 0 1.0 2.0 192 196
r 0.2928 1 2 cbr 1000 ------- 0 1.0 2.0 182 186
+ 0.293 1 2 cbr 1000 ------- 0 1.0 2.0 193 197
- 0.293 1 2 cbr 1000 ------- 0 1.0 2.0 193 197
r 0.293464 2 3 tcp 1040 ------- 1 0.0 3.0 1 163
+ 0.293464 3 2 ack 40 ------- 1 3.0 0.0 1 198
- 0.293464 3 2 ack 40 ------- 1 3.0 0.0 1 198
r 0.2938 1 2 cbr 1000 ------- 0 1.0 2.0 183 187
+ 0.294 1 2 cbr 1000 ------- 0 1.0 2.0 194 199
- 0.294 1 2 cbr 1000 ------- 0 1.0 2.0 194 199
r 0.2948 1 2 cbr 1000 ------- 0 1.0 2.0 184 188
+ 0.295 1 2 cbr 1000 ------- 0 1.0 2.0 195 200
- 0.295 1 2 cbr 1000 ------- 0 1.0 2.0 195 200
r 0.295096 2 3 tcp 1040 ------- 1 0.0 3.0 2 164
+ 0.295096 3 2 ack 40 ------- 1 3.0 0.0 2 201
- 0.295096 3 2 ack 40 ------- 1 3.0 0.0 2 201
r 0.2958 1 2 cbr 1000 ------- 0 1.0 2.0 185 189
+ 0.296 1 2 cbr 1000 ------- 0 1.0 2.0 196 202
- 0.296 1 2 cbr 1000 ------- 0 1.0 2.0 196 202
r 0.2968 1 2 cbr 1000 ------- 0 1.0 2.0 186 190
+ 0.297 1 2 cbr 1000 ------- 0 1.0 2.0 197 203
- 0.297 1 2 cbr 1000 ------- 0 1.0 2.0 197 203
r 0.2978 1 2 cbr 1000 ------- 0 1.0 2.0 187 191
+ 0.298 1 2 cbr 1000 ------- 0 1.0 2.0 198 204
- 0.298 1 2 cbr 1000 ------- 0 1.0 2.0 198 204
r 0.2988 1 2 cbr 1000 ------- 0 1.0 2.0 188 192
+ 0.299 1 2 cbr 1000 ------- 0 1.0 2.0 199 205
- 0.299 1 2 cbr 1000 ------- 0 1.0 2.0 199 205
r 0.2998 1 2 cbr 1000 ------- 0 1.0 2.0 189 193
+ 0.3 4 1 tcp 40 ------- 2 4.0 5.0 0 206
- 0.3 4 1 tcp 40 ------- 2 4.0 5.0 0 206
+ 0.3 1 2 cbr 1000 ------- 0 1.0 2.0 200 207
- 0.3 1 2 cbr 1000 ------- 0 1.0 2.0 200 207
r 0.3008 1 2 cbr 1000 ------- 0 1.0 2.0 190 194
+ 0.301 1 2 cbr 1000 ------- 0 1.0 2.0 201 208
- 0.301 1 2 cbr 1000 ------- 0 1.0 2.0 201 208
r 0.3018 1 2 cbr 1000 ------- 0 1.0 2.0 191 195
+ 0.302 1 2 cbr 1000 ------- 0 1.0 2.0 202 209
- 0.302 1 2 cbr 1000 ------- 0 1.0 2.0 202 209
r 0.3028 1 2 cbr 1000 ------- 0 1.0 2.0 192 196
+ 0.303 1 2 cbr 1000 ------- 0 1.0 2.0 203 210
- 0.303 1 2 cbr 1000 ------- 0 1.0 2.0 203 210
r 0.303496 3 2 ack 40 ------- 1 3.0 0.0 1 198
+ 0.303496 2 1 ack 40 ------- 1 3.0 0.0 1 198
- 0.303496 2 1 ack 40 ------- 1 3.0 0.0 1 198
r 0.3038 1 2 cbr 1000 ------- 0 1.0 2.0 193 197
+ 0.304 1 2 cbr 1000 ------- 0 1.0 2.0 204 211
- 0.304 1 2 cbr 1000 ------- 0 1.0 2.0 204 211