+ 0.1 1 2 cbr 1000 ------- 2 1.0 2.0 0 0
- 0.1 1 2 cbr 1000 ------- 2 1.0 2.0 0 0
+ 0.104 1 2 cbr 1000 ------- 2 1.0 2.0 1 1
- 0.104 1 2 cbr 1000 ------- 2 1.0 2.0 1 1
+ 0.108 1 2 cbr 1000 ------- 2 1.0 2.0 2 2
- 0.108 1 2 cbr 1000 ------- 2 1.0 2.0 2 2
r 0.1108 1 2 cbr 1000 ------- 2 1.0 2.0 0 0
+ 0.112 1 2 cbr 1000 ------- 2 1.0 2.0 3 3
- 0.112 1 2 cbr 1000 ------- 2 1.0 2.0 3 3
r 0.1148 1 2 cbr 1000 ------- 2 1.0 2.0 1 1
+ 0.116 1 2 cbr 1000 ------- 2 1.0 2.0 4 4
- 0.116 1 2 cbr 1000 ------- 2 1.0 2.0 4 4
r 0.1188 1 2 cbr 1000 ------- 2 1.0 2.0 2 2
+ 0.12 1 2 cbr 1000 ------- 2 1.0 2.0 5 5
- 0.12 1 2 cbr 1000 ------- 2 1.0 2.0 5 5
r 0.1228 1 2 cbr 1000 ------- 2 1.0 2.0 3 3
+ 0.124 1 2 cbr 1000 ------- 2 1.0 2.0 6 6
- 0.124 1 2 cbr 1000 ------- 2 1.0 2.0 6 6
r 0.1268 1 2 cbr 1000 ------- 2 1.0 2.0 4 4
+ 0.128 1 2 cbr 1000 ------- 2 1.0 2.0 7 7
- 0.128 1 2 cbr 1000 ------- 2 1.0 2.0 7 7
r 0.1308 1 2 cbr 1000 ------- 2 1.0 2.0 5 5
+ 0.132 1 2 cbr 1000 ------- 2 1.0 2.0 8 8
- 0.132 1 2 cbr 1000 ------- 2 1.0 2.0 8 8
r 0.1348 1 2 cbr 1000 ------- 2 1.0 2.0 6 6
+ 0.136 1 2 cbr 1000 ------- 2 1.0 2.0 9 9
- 0.136 1 2 cbr 1000 ------- 2 1.0 2.0 9 9
r 0.1388 1 2 cbr 1000 ------- 2 1.0 2.0 7 7
+ 0.14 1 2 cbr 1000 ------- 2 1.0 2.0 10 10
- 0.14 1 2 cbr 1000 ------- 2 1.0 2.0 10 10
r 0.1428 1 2 cbr 1000 ------- 2 1.0 2.0 8 8
+ 0.144 1 2 cbr 1000 ------- 2 1.0 2.0 11 11
- 0.144 1 2 cbr 1000 ------- 2 1.0 2.0 11 11
r 0.1468 1 2 cbr 1000 ------- 2 1.0 2.0 9 9
+ 0.148 1 2 cbr 1000 ------- 2 1.0 2.0 12 12
- 0.148 1 2 cbr 1000 ------- 2 1.0 2.0 12 12
r 0.1508 1 2 cbr 1000 ------- 2 1.0 2.0 10 10
+ 0.152 1 2 cbr 1000 ------- 2 1.0 2.0 13 13
- 0.152 1 2 cbr 1000 ------- 2 1.0 2.0 13 13
r 0.1548 1 2 cbr 1000 ------- 2 1.0 2.0 11 11
+ 0.156 1 2 cbr 1000 ------- 2 1.0 2.0 14 14
- 0.156 1 2 cbr 1000 ------- 2 1.0 2.0 14 14
r 0.1588 1 2 cbr 1000 ------- 2 1.0 2.0 12 12
+ 0.16 1 2 cbr 1000 ------- 2 1.0 2.0 15 15
- 0.16 1 2 cbr 1000 ------- 2 1.0 2.0 15 15
r 0.1628 1 2 cbr 1000 ------- 2 1.0 2.0 13 13
+ 0.164 1 2 cbr 1000 ------- 2 1.0 2.0 16 16
- 0.164 1 2 cbr 1000 ------- 2 1.0 2.0 16 16
r 0.1668 1 2 cbr 1000 ------- 2 1.0 2.0 14 14
+ 0.168 1 2 cbr 1000 ------- 2 1.0 2.0 17 17
- 0.168 1 2 cbr 1000 ------- 2 1.0 2.0 17 17
r 0.1708 1 2 cbr 1000 ------- 2 1.0 2.0 15 15
+ 0.172 1 2 cbr 1000 ------- 2 1.0 2.0 18 18
- 0.172 1 2 cbr 1000 ------- 2 1.0 2.0 18 18
r 0.1748 1 2 cbr 1000 ------- 2 1.0 2.0 16 16
+ 0.176 1 2 cbr 1000 ------- 2 1.0 2.0 19 19
- 0.176 1 2 cbr 1000 ------- 2 1.0 2.0 19 19
r 0.1788 1 2 cbr 1000 ------- 2 1.0 2.0 17 17
+ 0.18 1 2 cbr 1000 ------- 2 1.0 2.0 20 20
- 0.18 1 2 cbr 1000 ------- 2 1.0 2.0 20 20
r 0.1828 1 2 cbr 1000 ------- 2 1.0 2.0 18 18
+ 0.184 1 2 cbr 1000 ------- 2 1.0 2.0 21 21
- 0.184 1 2 cbr 1000 ------- 2 1.0 2.0 21 21
r 0.1868 1 2 cbr 1000 ------- 2 1.0 2.0 19 19
+ 0.188 1 2 cbr 1000 ------- 2 1.0 2.0 22 22
- 0.188 1 2 cbr 1000 ------- 2 1.0 2.0 22 22
r 0.1908 1 2 cbr 1000 ------- 2 1.0 2.0 20 20
+ 0.192 1 2 cbr 1000 ------- 2 1.0 2.0 23 23
- 0.192 1 2 cbr 1000 ------- 2 1.0 2.0 23 23
r 0.1948 1 2 cbr 1000 ------- 2 1.0 2.0 21 21
+ 0.196 1 2 cbr 1000 ------- 2 1.0 2.0 24 24
- 0.196 1 2 cbr 1000 ------- 2 1.0 2.0 24 24
r 0.1988 1 2 cbr 1000 ------- 2 1.0 2.0 22 22
+ 0.2 0 1 tcp 1000 ------- 1 0.0 3.0 0 25
- 0.2 0 1 tcp 1000 ------- 1 0.0 3.0 0 25
+ 0.2 1 2 cbr 1000 ------- 2 1.0 2.0 25 26
- 0.2 1 2 cbr 1000 ------- 2 1.0 2.0 25 26
r 0.2028 1 2 cbr 1000 ------- 2 1.0 2.0 23 23
+ 0.204 1 2 cbr 1000 ------- 2 1.0 2.0 26 27
- 0.204 1 2 cbr 1000 ------- 2 1.0 2.0 26 27
r 0.2068 1 2 cbr 1000 ------- 2 1.0 2.0 24 24
+ 0.208 1 2 cbr 1000 ------- 2 1.0 2.0 27 28
- 0.208 1 2 cbr 1000 ------- 2 1.0 2.0 27 28
r 0.2108 0 1 tcp 1000 ------- 1 0.0 3.0 0 25
+ 0.2108 1 2 tcp 1000 ------- 1 0.0 3.0 0 25
- 0.2108 1 2 tcp 1000 ------- 1 0.0 3.0 0 25
r 0.2108 1 2 cbr 1000 ------- 2 1.0 2.0 25 26
+ 0.212 1 2 cbr 1000 ------- 2 1.0 2.0 28 29
- 0.212 1 2 cbr 1000 ------- 2 1.0 2.0 28 29
r 0.2148 1 2 cbr 1000 ------- 2 1.0 2.0 26 27
+ 0.216 1 2 cbr 1000 ------- 2 1.0 2.0 29 30
- 0.216 1 2 cbr 1000 ------- 2 1.0 2.0 29 30
r 0.2188 1 2 cbr 1000 ------- 2 1.0 2.0 27 28
+ 0.22 1 2 cbr 1000 ------- 2 1.0 2.0 30 31
- 0.22 1 2 cbr 1000 ------- 2 1.0 2.0 30 31
r 0.2216 1 2 tcp 1000 ------- 1 0.0 3.0 0 25
+ 0.2216 2 3 tcp 1000 ------- 1 0.0 3.0 0 25
- 0.2216 2 3 tcp 1000 ------- 1 0.0 3.0 0 25
r 0.2228 1 2 cbr 1000 ------- 2 1.0 2.0 28 29
+ 0.224 1 2 cbr 1000 ------- 2 1.0 2.0 31 32
- 0.224 1 2 cbr 1000 ------- 2 1.0 2.0 31 32
r 0.2268 1 2 cbr 1000 ------- 2 1.0 2.0 29 30
+ 0.228 1 2 cbr 1000 ------- 2 1.0 2.0 32 33
- 0.228 1 2 cbr 1000 ------- 2 1.0 2.0 32 33
r 0.2308 1 2 cbr 1000 ------- 2 1.0 2.0 30 31
+ 0.232 1 2 cbr 1000 ------- 2 1.0 2.0 33 34
- 0.232 1 2 cbr 1000 ------- 2 1.0 2.0 33 34
r 0.2324 2 3 tcp 1000 ------- 1 0.0 3.0 0 25
+ 0.2324 3 2 ack 40 ------- 1 3.0 0.0 0 35
- 0.2324 3 2 ack 40 ------- 1 3.0 0.0 0 35
r 0.2348 1 2 cbr 1000 ------- 2 1.0 2.0 31 32
+ 0.236 1 2 cbr 1000 ------- 2 1.0 2.0 34 36
- 0.236 1 2 cbr 1000 ------- 2 1.0 2.0 34 36
r 0.2388 1 2 cbr 1000 ------- 2 1.0 2.0 32 33
+ 0.24 1 2 cbr 1000 ------- 2 1.0 2.0 35 37
- 0.24 1 2 cbr 1000 ------- 2 1.0 2.0 35 37
r 0.242432 3 2 ack 40 ------- 1 3.0 0.0 0 35
+ 0.242432 2 1 ack 40 ------- 1 3.0 0.0 0 35
- 0.242432 2 1 ack 40 ------- 1 3.0 0.0 0 35
r 0.2428 1 2 cbr 1000 ------- 2 1.0 2.0 33 34
+ 0.244 1 2 cbr 1000 ------- 2 1.0 2.0 36 38
- 0.244 1 2 cbr 1000 ------- 2 1.0 2.0 36 38
r 0.2468 1 2 cbr 1000 ------- 2 1.0 2.0 34 36
+ 0.248 1 2 cbr 1000 ------- 2 1.0 2.0 37 39
- 0.248 1 2 cbr 1000 ------- 2 1.0 2.0 37 39
r 0.2508 1 2 cbr 1000 ------- 2 1.0 2.0 35 37
+ 0.252 1 2 cbr 1000 ------- 2 1.0 2.0 38 40
- 0.252 1 2 cbr 1000 ------- 2 1.0 2.0 38 40
r 0.252464 2 1 ack 40 ------- 1 3.0 0.0 0 35
+ 0.252464 1 0 ack 40 ------- 1 3.0 0.0 0 35
- 0.252464 1 0 ack 40 ------- 1 3.0 0.0 0 35
r 0.2548 1 2 cbr 1000 ------- 2 1.0 2.0 36 38
+ 0.256 1 2 cbr 1000 ------- 2 1.0 2.0 39 41
- 0.256 1 2 cbr 1000 ------- 2 1.0 2.0 39 41
r 0.2588 1 2 cbr 1000 ------- 2 1.0 2.0 37 39
+ 0.26 1 2 cbr 1000 ------- 2 1.0 2.0 40 42
- 0.26 1 2 cbr 1000 ------- 2 1.0 2.0 40 42
r 0.262496 1 0 ack 40 ------- 1 3.0 0.0 0 35
+ 0.262496 0 1 tcp 1000 ------- 1 0.0 3.0 1 43
- 0.262496 0 1 tcp 1000 ------- 1 0.0 3.0 1 43
r 0.2628 1 2 cbr 1000 ------- 2 1.0 2.0 38 40
+ 0.264 1 2 cbr 1000 ------- 2 1.0 2.0 41 44
- 0.264 1 2 cbr 1000 ------- 2 1.0 2.0 41 44
r 0.2668 1 2 cbr 1000 ------- 2 1.0 2.0 39 41
+ 0.268 1 2 cbr 1000 ------- 2 1.0 2.0 42 45
- 0.268 1 2 cbr 1000 ------- 2 1.0 2.0 42 45
r 0.2708 1 2 cbr 1000 ------- 2 1.0 2.0 40 42
+ 0.272 1 2 cbr 1000 ------- 2 1.0 2.0 43 46
- 0.272 1 2 cbr 1000 ------- 2 1.0 2.0 43 46
r 0.273296 0 1 tcp 1000 ------- 1 0.0 3.0 1 43
+ 0.273296 1 2 tcp 1000 ------- 1 0.0 3.0 1 43
- 0.273296 1 2 tcp 1000 ------- 1 0.0 3.0 1 43
r 0.2748 1 2 cbr 1000 ------- 2 1.0 2.0 41 44
+ 0.276 1 2 cbr 1000 ------- 2 1.0 2.0 44 47
- 0.276 1 2 cbr 1000 ------- 2 1.0 2.0 44 47
r 0.2788 1 2 cbr 1000 ------- 2 1.0 2.0 42 45
+ 0.28 1 2 cbr 1000 ------- 2 1.0 2.0 45 48
- 0.28 1 2 cbr 1000 ------- 2 1.0 2.0 45 48
r 0.2828 1 2 cbr 1000 ------- 2 1.0 2.0 43 46
+ 0.284 1 2 cbr 1000 ------- 2 1.0 2.0 46 49
- 0.284 1 2 cbr 1000 ------- 2 1.0 2.0 46 49
r 0.284096 1 2 tcp 1000 ------- 1 0.0 3.0 1 43
+ 0.284096 2 3 tcp 1000 ------- 1 0.0 3.0 1 43
- 0.284096 2 3 tcp 1000 ------- 1 0.0 3.0 1 43
r 0.2868 1 2 cbr 1000 ------- 2 1.0 2.0 44 47
+ 0.288 1 2 cbr 1000 ------- 2 1.0 2.0 47 50
- 0.288 1 2 cbr 1000 ------- 2 1.0 2.0 47 50
r 0.2908 1 2 cbr 1000 ------- 2 1.0 2.0 45 48
+ 0.292 1 2 cbr 1000 ------- 2 1.0 2.0 48 51
- 0.292 1 2 cbr 1000 ------- 2 1.0 2.0 48 51
r 0.2948 1 2 cbr 1000 ------- 2 1.0 2.0 46 49
r 0.294896 2 3 tcp 1000 ------- 1 0.0 3.0 1 43
+ 0.294896 3 2 ack 40 ------- 1 3.0 0.0 1 52
- 0.294896 3 2 ack 40 ------- 1 3.0 0.0 1 52
+ 0.296 1 2 cbr 1000 ------- 2 1.0 2.0 49 53
- 0.296 1 2 cbr 1000 ------- 2 1.0 2.0 49 53
r 0.2988 1 2 cbr 1000 ------- 2 1.0 2.0 47 50
+ 0.3 1 2 cbr 1000 ------- 2 1.0 2.0 50 54
- 0.3 1 2 cbr 1000 ------- 2 1.0 2.0 50 54
r 0.3028 1 2 cbr 1000 ------- 2 1.0 2.0 48 51
+ 0.304 1 2 cbr 1000 ------- 2 1.0 2.0 51 55
- 0.304 1 2 cbr 1000 ------- 2 1.0 2.0 51 55
r 0.304928 3 2 ack 40 ------- 1 3.0 0.0 1 52
+ 0.304928 2 1 ack 40 ------- 1 3.0 0.0 1 52
- 0.304928 2 1 ack 40 ------- 1 3.0 0.0 1 52
r 0.3068 1 2 cbr 1000 ------- 2 1.0 2.0 49 53
+ 0.308 1 2 cbr 1000 ------- 2 1.0 2.0 52 56
- 0.308 1 2 cbr 1000 ------- 2 1.0 2.0 52 56
r 0.3108 1 2 cbr 1000 ------- 2 1.0 2.0 50 54
+ 0.312 1 2 cbr 1000 ------- 2 1.0 2.0 53 57
- 0.312 1 2 cbr 1000 ------- 2 1.0 2.0 53 57
r 0.3148 1 2 cbr 1000 ------- 2 1.0 2.0 51 55
r 0.31496 2 1 ack 40 ------- 1 3.0 0.0 1 52
+ 0.31496 1 0 ack 40 ------- 1 3.0 0.0 1 52
- 0.31496 1 0 ack 40 ------- 1 3.0 0.0 1 52
+ 0.316 1 2 cbr 1000 ------- 2 1.0 2.0 54 58
- 0.316 1 2 cbr 1000 ------- 2 1.0 2.0 54 58
r 0.3188 1 2 cbr 1000 ------- 2 1.0 2.0 52 56
+ 0.32 1 2 cbr 1000 ------- 2 1.0 2.0 55 59
- 0.32 1 2 cbr 1000 ------- 2 1.0 2.0 55 59
r 0.3228 1 2 cbr 1000 ------- 2 1.0 2.0 53 57
+ 0.324 1 2 cbr 1000 ------- 2 1.0 2.0 56 60
- 0.324 1 2 cbr 1000 ------- 2 1.0 2.0 56 60
r 0.324992 1 0 ack 40 ------- 1 3.0 0.0 1 52
+ 0.324992 0 1 tcp 1000 ------- 1 0.0 3.0 2 61
- 0.324992 0 1 tcp 1000 ------- 1 0.0 3.0 2 61
+ 0.324992 0 1 tcp 1000 ------- 1 0.0 3.0 3 62
+ 0.324992 0 1 tcp 1000 ------- 1 0.0 3.0 4 63
- 0.325792 0 1 tcp 1000 ------- 1 0.0 3.0 3 62
- 0.326592 0 1 tcp 1000 ------- 1 0.0 3.0 4 63
r 0.3268 1 2 cbr 1000 ------- 2 1.0 2.0 54 58
+ 0.328 1 2 cbr 1000 ------- 2 1.0 2.0 57 64
- 0.328 1 2 cbr 1000 ------- 2 1.0 2.0 57 64
r 0.3308 1 2 cbr 1000 ------- 2 1.0 2.0 55 59
+ 0.332 1 2 cbr 1000 ------- 2 1.0 2.0 58 65
- 0.332 1 2 cbr 1000 ------- 2 1.0 2.0 58 65
r 0.3348 1 2 cbr 1000 ------- 2 1.0 2.0 56 60
r 0.335792 0 1 tcp 1000 ------- 1 0.0 3.0 2 61
+ 0.335792 1 2 tcp 1000 ------- 1 0.0 3.0 2 61
- 0.335792 1 2 tcp 1000 ------- 1 0.0 3.0 2 61
+ 0.336 1 2 cbr 1000 ------- 2 1.0 2.0 59 66
r 0.336592 0 1 tcp 1000 ------- 1 0.0 3.0 3 62
+ 0.336592 1 2 tcp 1000 ------- 1 0.0 3.0 3 62
- 0.336592 1 2 cbr 1000 ------- 2 1.0 2.0 59 66
r 0.337392 0 1 tcp 1000 ------- 1 0.0 3.0 4 63
+ 0.337392 1 2 tcp 1000 ------- 1 0.0 3.0 4 63
- 0.337392 1 2 tcp 1000 ------- 1 0.0 3.0 3 62
- 0.338192 1 2 tcp 1000 ------- 1 0.0 3.0 4 63
r 0.3388 1 2 cbr 1000 ------- 2 1.0 2.0 57 64
+ 0.34 1 2 cbr 1000 ------- 2 1.0 2.0 60 67
- 0.34 1 2 cbr 1000 ------- 2 1.0 2.0 60 67
r 0.3428 1 2 cbr 1000 ------- 2 1.0 2.0 58 65
+ 0.344 1 2 cbr 1000 ------- 2 1.0 2.0 61 68
- 0.344 1 2 cbr 1000 ------- 2 1.0 2.0 61 68
r 0.346592 1 2 tcp 1000 ------- 1 0.0 3.0 2 61
+ 0.346592 2 3 tcp 1000 ------- 1 0.0 3.0 2 61
- 0.346592 2 3 tcp 1000 ------- 1 0.0 3.0 2 61
r 0.347392 1 2 cbr 1000 ------- 2 1.0 2.0 59 66
+ 0.348 1 2 cbr 1000 ------- 2 1.0 2.0 62 69
- 0.348 1 2 cbr 1000 ------- 2 1.0 2.0 62 69
r 0.348192 1 2 tcp 1000 ------- 1 0.0 3.0 3 62
+ 0.348192 2 3 tcp 1000 ------- 1 0.0 3.0 3 62
- 0.348192 2 3 tcp 1000 ------- 1 0.0 3.0 3 62
r 0.348992 1 2 tcp 1000 ------- 1 0.0 3.0 4 63
+ 0.348992 2 3 tcp 1000 ------- 1 0.0 3.0 4 63
- 0.348992 2 3 tcp 1000 ------- 1 0.0 3.0 4 63
r 0.3508 1 2 cbr 1000 ------- 2 1.0 2.0 60 67
+ 0.352 1 2 cbr 1000 ------- 2 1.0 2.0 63 70
- 0.352 1 2 cbr 1000 ------- 2 1.0 2.0 63 70
r 0.3548 1 2 cbr 1000 ------- 2 1.0 2.0 61 68
+ 0.356 1 2 cbr 1000 ------- 2 1.0 2.0 64 71
- 0.356 1 2 cbr 1000 ------- 2 1.0 2.0 64 71
r 0.357392 2 3 tcp 1000 ------- 1 0.0 3.0 2 61
+ 0.357392 3 2 ack 40 ------- 1 3.0 0.0 2 72
- 0.357392 3 2 ack 40 ------- 1 3.0 0.0 2 72
r 0.3588 1 2 cbr 1000 ------- 2 1.0 2.0 62 69
r 0.358992 2 3 tcp 1000 ------- 1 0.0 3.0 3 62
+ 0.358992 3 2 ack 40 ------- 1 3.0 0.0 3 73
- 0.358992 3 2 ack 40 ------- 1 3.0 0.0 3 73
r 0.359792 2 3 tcp 1000 ------- 1 0.0 3.0 4 63
+ 0.359792 3 2 ack 40 ------- 1 3.0 0.0 4 74
- 0.359792 3 2 ack 40 ------- 1 3.0 0.0 4 74
+ 0.36 1 2 cbr 1000 ------- 2 1.0 2.0 65 75
- 0.36 1 2 cbr 1000 ------- 2 1.0 2.0 65 75
r 0.3628 1 2 cbr 1000 ------- 2 1.0 2.0 63 70
+ 0.364 1 2 cbr 1000 ------- 2 1.0 2.0 66 76
- 0.364 1 2 cbr 1000 ------- 2 1.0 2.0 66 76
r 0.3668 1 2 cbr 1000 ------- 2 1.0 2.0 64 71
r 0.367424 3 2 ack 40 ------- 1 3.0 0.0 2 72
+ 0.367424 2 1 ack 40 ------- 1 3.0 0.0 2 72
- 0.367424 2 1 ack 40 ------- 1 3.0 0.0 2 72
+ 0.368 1 2 cbr 1000 ------- 2 1.0 2.0 67 77
- 0.368 1 2 cbr 1000 ------- 2 1.0 2.0 67 77
r 0.369024 3 2 ack 40 ------- 1 3.0 0.0 3 73
+ 0.369024 2 1 ack 40 ------- 1 3.0 0.0 3 73
- 0.369024 2 1 ack 40 ------- 1 3.0 0.0 3 73
r 0.369824 3 2 ack 40 ------- 1 3.0 0.0 4 74
+ 0.369824 2 1 ack 40 ------- 1 3.0 0.0 4 74
- 0.369824 2 1 ack 40 ------- 1 3.0 0.0 4 74
r 0.3708 1 2 cbr 1000 ------- 2 1.0 2.0 65 75
+ 0.372 1 2 cbr 1000 ------- 2 1.0 2.0 68 78
- 0.372 1 2 cbr 1000 ------- 2 1.0 2.0 68 78
r 0.3748 1 2 cbr 1000 ------- 2 1.0 2.0 66 76
+ 0.376 1 2 cbr 1000 ------- 2 1.0 2.0 69 79
- 0.376 1 2 cbr 1000 ------- 2 1.0 2.0 69 79
r 0.377456 2 1 ack 40 ------- 1 3.0 0.0 2 72
+ 0.377456 1 0 ack 40 ------- 1 3.0 0.0 2 72
- 0.377456 1 0 ack 40 ------- 1 3.0 0.0 2 72
r 0.3788 1 2 cbr 1000 ------- 2 1.0 2.0 67 77
r 0.379056 2 1 ack 40 ------- 1 3.0 0.0 3 73
+ 0.379056 1 0 ack 40 ------- 1 3.0 0.0 3 73
- 0.379056 1 0 ack 40 ------- 1 3.0 0.0 3 73
r 0.379856 2 1 ack 40 ------- 1 3.0 0.0 4 74
+ 0.379856 1 0 ack 40 ------- 1 3.0 0.0 4 74
- 0.379856 1 0 ack 40 ------- 1 3.0 0.0 4 74
+ 0.38 1 2 cbr 1000 ------- 2 1.0 2.0 70 80
- 0.38 1 2 cbr 1000 ------- 2 1.0 2.0 70 80
r 0.3828 1 2 cbr 1000 ------- 2 1.0 2.0 68 78
+ 0.384 1 2 cbr 1000 ------- 2 1.0 2.0 71 81
- 0.384 1 2 cbr 1000 ------- 2 1.0 2.0 71 81
r 0.3868 1 2 cbr 1000 ------- 2 1.0 2.0 69 79
r 0.387488 1 0 ack 40 ------- 1 3.0 0.0 2 72
+ 0.387488 0 1 tcp 1000 ------- 1 0.0 3.0 5 82
- 0.387488 0 1 tcp 1000 ------- 1 0.0 3.0 5 82
+ 0.388 1 2 cbr 1000 ------- 2 1.0 2.0 72 83
- 0.388 1 2 cbr 1000 ------- 2 1.0 2.0 72 83
r 0.389088 1 0 ack 40 ------- 1 3.0 0.0 3 73
+ 0.389088 0 1 tcp 1000 ------- 1 0.0 3.0 6 84
- 0.389088 0 1 tcp 1000 ------- 1 0.0 3.0 6 84
r 0.389888 1 0 ack 40 ------- 1 3.0 0.0 4 74
+ 0.389888 0 1 tcp 1000 ------- 1 0.0 3.0 7 85
- 0.389888 0 1 tcp 1000 ------- 1 0.0 3.0 7 85
r 0.3908 1 2 cbr 1000 ------- 2 1.0 2.0 70 80
+ 0.392 1 2 cbr 1000 ------- 2 1.0 2.0 73 86
- 0.392 1 2 cbr 1000 ------- 2 1.0 2.0 73 86
r 0.3948 1 2 cbr 1000 ------- 2 1.0 2.0 71 81
+ 0.396 1 2 cbr 1000 ------- 2 1.0 2.0 74 87
- 0.396 1 2 cbr 1000 ------- 2 1.0 2.0 74 87
r 0.398288 0 1 tcp 1000 ------- 1 0.0 3.0 5 82
+ 0.398288 1 2 tcp 1000 ------- 1 0.0 3.0 5 82
- 0.398288 1 2 tcp 1000 ------- 1 0.0 3.0 5 82
r 0.3988 1 2 cbr 1000 ------- 2 1.0 2.0 72 83
r 0.399888 0 1 tcp 1000 ------- 1 0.0 3.0 6 84
+ 0.399888 1 2 tcp 1000 ------- 1 0.0 3.0 6 84
- 0.399888 1 2 tcp 1000 ------- 1 0.0 3.0 6 84
+ 0.4 1 2 cbr 1000 ------- 2 1.0 2.0 75 88
r 0.400688 0 1 tcp 1000 ------- 1 0.0 3.0 7 85
+ 0.400688 1 2 tcp 1000 ------- 1 0.0 3.0 7 85
- 0.400688 1 2 cbr 1000 ------- 2 1.0 2.0 75 88
- 0.401488 1 2 tcp 1000 ------- 1 0.0 3.0 7 85
r 0.4028 1 2 cbr 1000 ------- 2 1.0 2.0 73 86
+ 0.404 1 2 cbr 1000 ------- 2 1.0 2.0 76 89
- 0.404 1 2 cbr 1000 ------- 2 1.0 2.0 76 89
r 0.4068 1 2 cbr 1000 ------- 2 1.0 2.0 74 87
+ 0.408 1 2 cbr 1000 ------- 2 1.0 2.0 77 90
- 0.408 1 2 cbr 1000 ------- 2 1.0 2.0 77 90
r 0.409088 1 2 tcp 1000 ------- 1 0.0 3.0 5 82
+ 0.409088 2 3 tcp 1000 ------- 1 0.0 3.0 5 82
- 0.409088 2 3 tcp 1000 ------- 1 0.0 3.0 5 82
r 0.410688 1 2 tcp 1000 ------- 1 0.0 3.0 6 84
+ 0.410688 2 3 tcp 1000 ------- 1 0.0 3.0 6 84
- 0.410688 2 3 tcp 1000 ------- 1 0.0 3.0 6 84
r 0.411488 1 2 cbr 1000 ------- 2 1.0 2.0 75 88
+ 0.412 1 2 cbr 1000 ------- 2 1.0 2.0 78 91
- 0.412 1 2 cbr 1000 ------- 2 1.0 2.0 78 91
r 0.412288 1 2 tcp 1000 ------- 1 0.0 3.0 7 85
+ 0.412288 2 3 tcp 1000 ------- 1 0.0 3.0 7 85
- 0.412288 2 3 tcp 1000 ------- 1 0.0 3.0 7 85
r 0.4148 1 2 cbr 1000 ------- 2 1.0 2.0 76 89
+ 0.416 1 2 cbr 1000 ------- 2 1.0 2.0 79 92
- 0.416 1 2 cbr 1000 ------- 2 1.0 2.0 79 92
r 0.4188 1 2 cbr 1000 ------- 2 1.0 2.0 77 90
r 0.419888 2 3 tcp 1000 ------- 1 0.0 3.0 5 82
+ 0.419888 3 2 ack 40 ------- 1 3.0 0.0 5 93
- 0.419888 3 2 ack 40 ------- 1 3.0 0.0 5 93
+ 0.42 1 2 cbr 1000 ------- 2 1.0 2.0 80 94
- 0.42 1 2 cbr 1000 ------- 2 1.0 2.0 80 94
r 0.421488 2 3 tcp 1000 ------- 1 0.0 3.0 6 84
+ 0.421488 3 2 ack 40 ------- 1 3.0 0.0 6 95
- 0.421488 3 2 ack 40 ------- 1 3.0 0.0 6 95
r 0.4228 1 2 cbr 1000 ------- 2 1.0 2.0 78 91
r 0.423088 2 3 tcp 1000 ------- 1 0.0 3.0 7 85
+ 0.423088 3 2 ack 40 ------- 1 3.0 0.0 7 96
- 0.423088 3 2 ack 40 ------- 1 3.0 0.0 7 96
+ 0.424 1 2 cbr 1000 ------- 2 1.0 2.0 81 97
- 0.424 1 2 cbr 1000 ------- 2 1.0 2.0 81 97
r 0.4268 1 2 cbr 1000 ------- 2 1.0 2.0 79 92
+ 0.428 1 2 cbr 1000 ------- 2 1.0 2.0 82 98
- 0.428 1 2 cbr 1000 ------- 2 1.0 2.0 82 98
r 0.42992 3 2 ack 40 ------- 1 3.0 0.0 5 93
+ 0.42992 2 1 ack 40 ------- 1 3.0 0.0 5 93
- 0.42992 2 1 ack 40 ------- 1 3.0 0.0 5 93
r 0.4308 1 2 cbr 1000 ------- 2 1.0 2.0 80 94
r 0.43152 3 2 ack 40 ------- 1 3.0 0.0 6 95
+ 0.43152 2 1 ack 40 ------- 1 3.0 0.0 6 95
- 0.43152 2 1 ack 40 ------- 1 3.0 0.0 6 95
+ 0.432 1 2 cbr 1000 ------- 2 1.0 2.0 83 99
- 0.432 1 2 cbr 1000 ------- 2 1.0 2.0 83 99
r 0.43312 3 2 ack 40 ------- 1 3.0 0.0 7 96
+ 0.43312 2 1 ack 40 ------- 1 3.0 0.0 7 96
- 0.43312 2 1 ack 40 ------- 1 3.0 0.0 7 96
r 0.4348 1 2 cbr 1000 ------- 2 1.0 2.0 81 97
+ 0.436 1 2 cbr 1000 ------- 2 1.0 2.0 84 100
- 0.436 1 2 cbr 1000 ------- 2 1.0 2.0 84 100
r 0.4388 1 2 cbr 1000 ------- 2 1.0 2.0 82 98
r 0.439952 2 1 ack 40 ------- 1 3.0 0.0 5 93
+ 0.439952 1 0 ack 40 ------- 1 3.0 0.0 5 93
- 0.439952 1 0 ack 40 ------- 1 3.0 0.0 5 93
+ 0.44 1 2 cbr 1000 ------- 2 1.0 2.0 85 101
- 0.44 1 2 cbr 1000 ------- 2 1.0 2.0 85 101
r 0.441552 2 1 ack 40 ------- 1 3.0 0.0 6 95
+ 0.441552 1 0 ack 40 ------- 1 3.0 0.0 6 95
- 0.441552 1 0 ack 40 ------- 1 3.0 0.0 6 95
r 0.4428 1 2 cbr 1000 ------- 2 1.0 2.0 83 99
r 0.443152 2 1 ack 40 ------- 1 3.0 0.0 7 96
+ 0.443152 1 0 ack 40 ------- 1 3.0 0.0 7 96
- 0.443152 1 0 ack 40 ------- 1 3.0 0.0 7 96
+ 0.444 1 2 cbr 1000 ------- 2 1.0 2.0 86 102
- 0.444 1 2 cbr 1000 ------- 2 1.0 2.0 86 102
r 0.4468 1 2 cbr 1000 ------- 2 1.0 2.0 84 100
+ 0.448 1 2 cbr 1000 ------- 2 1.0 2.0 87 103
- 0.448 1 2 cbr 1000 ------- 2 1.0 2.0 87 103
r 0.449984 1 0 ack 40 ------- 1 3.0 0.0 5 93
+ 0.449984 0 1 tcp 1000 ------- 1 0.0 3.0 8 104
- 0.449984 0 1 tcp 1000 ------- 1 0.0 3.0 8 104
+ 0.449984 0 1 tcp 1000 ------- 1 0.0 3.0 9 105
- 0.450784 0 1 tcp 1000 ------- 1 0.0 3.0 9 105
r 0.4508 1 2 cbr 1000 ------- 2 1.0 2.0 85 101
r 0.451584 1 0 ack 40 ------- 1 3.0 0.0 6 95
+ 0.451584 0 1 tcp 1000 ------- 1 0.0 3.0 10 106
+ 0.451584 0 1 tcp 1000 ------- 1 0.0 3.0 11 107
- 0.451584 0 1 tcp 1000 ------- 1 0.0 3.0 10 106
+ 0.452 1 2 cbr 1000 ------- 2 1.0 2.0 88 108
- 0.452 1 2 cbr 1000 ------- 2 1.0 2.0 88 108
- 0.452384 0 1 tcp 1000 ------- 1 0.0 3.0 11 107
r 0.453184 1 0 ack 40 ------- 1 3.0 0.0 7 96
+ 0.453184 0 1 tcp 1000 ------- 1 0.0 3.0 12 109
+ 0.453184 0 1 tcp 1000 ------- 1 0.0 3.0 13 110
- 0.453184 0 1 tcp 1000 ------- 1 0.0 3.0 12 109
- 0.453984 0 1 tcp 1000 ------- 1 0.0 3.0 13 110
r 0.4548 1 2 cbr 1000 ------- 2 1.0 2.0 86 102
+ 0.456 1 2 cbr 1000 ------- 2 1.0 2.0 89 111
- 0.456 1 2 cbr 1000 ------- 2 1.0 2.0 89 111
r 0.4588 1 2 cbr 1000 ------- 2 1.0 2.0 87 103
+ 0.46 1 2 cbr 1000 ------- 2 1.0 2.0 90 112
- 0.46 1 2 cbr 1000 ------- 2 1.0 2.0 90 112
r 0.460784 0 1 tcp 1000 ------- 1 0.0 3.0 8 104
+ 0.460784 1 2 tcp 1000 ------- 1 0.0 3.0 8 104
- 0.4608 1 2 tcp 1000 ------- 1 0.0 3.0 8 104
r 0.461584 0 1 tcp 1000 ------- 1 0.0 3.0 9 105
+ 0.461584 1 2 tcp 1000 ------- 1 0.0 3.0 9 105
- 0.4616 1 2 tcp 1000 ------- 1 0.0 3.0 9 105
r 0.462384 0 1 tcp 1000 ------- 1 0.0 3.0 10 106
+ 0.462384 1 2 tcp 1000 ------- 1 0.0 3.0 10 106
- 0.4624 1 2 tcp 1000 ------- 1 0.0 3.0 10 106
r 0.4628 1 2 cbr 1000 ------- 2 1.0 2.0 88 108
r 0.463184 0 1 tcp 1000 ------- 1 0.0 3.0 11 107
+ 0.463184 1 2 tcp 1000 ------- 1 0.0 3.0 11 107
- 0.4632 1 2 tcp 1000 ------- 1 0.0 3.0 11 107
r 0.463984 0 1 tcp 1000 ------- 1 0.0 3.0 12 109
+ 0.463984 1 2 tcp 1000 ------- 1 0.0 3.0 12 109
+ 0.464 1 2 cbr 1000 ------- 2 1.0 2.0 91 113
- 0.464 1 2 tcp 1000 ------- 1 0.0 3.0 12 109
r 0.464784 0 1 tcp 1000 ------- 1 0.0 3.0 13 110
+ 0.464784 1 2 tcp 1000 ------- 1 0.0 3.0 13 110
- 0.4648 1 2 cbr 1000 ------- 2 1.0 2.0 91 113
- 0.4656 1 2 tcp 1000 ------- 1 0.0 3.0 13 110
r 0.4668 1 2 cbr 1000 ------- 2 1.0 2.0 89 111
+ 0.468 1 2 cbr 1000 ------- 2 1.0 2.0 92 114
- 0.468 1 2 cbr 1000 ------- 2 1.0 2.0 92 114
r 0.4708 1 2 cbr 1000 ------- 2 1.0 2.0 90 112
r 0.4716 1 2 tcp 1000 ------- 1 0.0 3.0 8 104
+ 0.4716 2 3 tcp 1000 ------- 1 0.0 3.0 8 104
- 0.4716 2 3 tcp 1000 ------- 1 0.0 3.0 8 104
+ 0.472 1 2 cbr 1000 ------- 2 1.0 2.0 93 115
- 0.472 1 2 cbr 1000 ------- 2 1.0 2.0 93 115
r 0.4724 1 2 tcp 1000 ------- 1 0.0 3.0 9 105
+ 0.4724 2 3 tcp 1000 ------- 1 0.0 3.0 9 105
- 0.4724 2 3 tcp 1000 ------- 1 0.0 3.0 9 105
r 0.4732 1 2 tcp 1000 ------- 1 0.0 3.0 10 106
+ 0.4732 2 3 tcp 1000 ------- 1 0.0 3.0 10 106
- 0.4732 2 3 tcp 1000 ------- 1 0.0 3.0 10 106
r 0.474 1 2 tcp 1000 ------- 1 0.0 3.0 11 107
+ 0.474 2 3 tcp 1000 ------- 1 0.0 3.0 11 107
- 0.474 2 3 tcp 1000 ------- 1 0.0 3.0 11 107
r 0.4748 1 2 tcp 1000 ------- 1 0.0 3.0 12 109
+ 0.4748 2 3 tcp 1000 ------- 1 0.0 3.0 12 109
- 0.4748 2 3 tcp 1000 ------- 1 0.0 3.0 12 109
r 0.4756 1 2 cbr 1000 ------- 2 1.0 2.0 91 113
+ 0.476 1 2 cbr 1000 ------- 2 1.0 2.0 94 116
- 0.476 1 2 cbr 1000 ------- 2 1.0 2.0 94 116
r 0.4764 1 2 tcp 1000 ------- 1 0.0 3.0 13 110
+ 0.4764 2 3 tcp 1000 ------- 1 0.0 3.0 13 110
- 0.4764 2 3 tcp 1000 ------- 1 0.0 3.0 13 110
r 0.4788 1 2 cbr 1000 ------- 2 1.0 2.0 92 114
+ 0.48 1 2 cbr 1000 ------- 2 1.0 2.0 95 117
- 0.48 1 2 cbr 1000 ------- 2 1.0 2.0 95 117
r 0.4824 2 3 tcp 1000 ------- 1 0.0 3.0 8 104
+ 0.4824 3 2 ack 40 ------- 1 3.0 0.0 8 118
- 0.4824 3 2 ack 40 ------- 1 3.0 0.0 8 118
r 0.4828 1 2 cbr 1000 ------- 2 1.0 2.0 93 115
r 0.4832 2 3 tcp 1000 ------- 1 0.0 3.0 9 105
+ 0.4832 3 2 ack 40 ------- 1 3.0 0.0 9 119
- 0.4832 3 2 ack 40 ------- 1 3.0 0.0 9 119
r 0.484 2 3 tcp 1000 ------- 1 0.0 3.0 10 106
+ 0.484 3 2 ack 40 ------- 1 3.0 0.0 10 120
- 0.484 3 2 ack 40 ------- 1 3.0 0.0 10 120
+ 0.484 1 2 cbr 1000 ------- 2 1.0 2.0 96 121
- 0.484 1 2 cbr 1000 ------- 2 1.0 2.0 96 121
r 0.4848 2 3 tcp 1000 ------- 1 0.0 3.0 11 107
+ 0.4848 3 2 ack 40 ------- 1 3.0 0.0 11 122
- 0.4848 3 2 ack 40 ------- 1 3.0 0.0 11 122
r 0.4856 2 3 tcp 1000 ------- 1 0.0 3.0 12 109
+ 0.4856 3 2 ack 40 ------- 1 3.0 0.0 12 123
- 0.4856 3 2 ack 40 ------- 1 3.0 0.0 12 123
r 0.4868 1 2 cbr 1000 ------- 2 1.0 2.0 94 116
r 0.4872 2 3 tcp 1000 ------- 1 0.0 3.0 13 110
+ 0.4872 3 2 ack 40 ------- 1 3.0 0.0 13 124
- 0.4872 3 2 ack 40 ------- 1 3.0 0.0 13 124
+ 0.488 1 2 cbr 1000 ------- 2 1.0 2.0 97 125
- 0.488 1 2 cbr 1000 ------- 2 1.0 2.0 97 125
r 0.4908 1 2 cbr 1000 ------- 2 1.0 2.0 95 117
+ 0.492 1 2 cbr 1000 ------- 2 1.0 2.0 98 126
- 0.492 1 2 cbr 1000 ------- 2 1.0 2.0 98 126
r 0.492432 3 2 ack 40 ------- 1 3.0 0.0 8 118
+ 0.492432 2 1 ack 40 ------- 1 3.0 0.0 8 118
- 0.492432 2 1 ack 40 ------- 1 3.0 0.0 8 118
r 0.493232 3 2 ack 40 ------- 1 3.0 0.0 9 119
+ 0.493232 2 1 ack 40 ------- 1 3.0 0.0 9 119
- 0.493232 2 1 ack 40 ------- 1 3.0 0.0 9 119
r 0.494032 3 2 ack 40 ------- 1 3.0 0.0 10 120
+ 0.494032 2 1 ack 40 ------- 1 3.0 0.0 10 120
- 0.494032 2 1 ack 40 ------- 1 3.0 0.0 10 120
r 0.4948 1 2 cbr 1000 ------- 2 1.0 2.0 96 121
r 0.494832 3 2 ack 40 ------- 1 3.0 0.0 11 122
+ 0.494832 2 1 ack 40 ------- 1 3.0 0.0 11 122
- 0.494832 2 1 ack 40 ------- 1 3.0 0.0 11 122
r 0.495632 3 2 ack 40 ------- 1 3.0 0.0 12 123
+ 0.495632 2 1 ack 40 ------- 1 3.0 0.0 12 123
- 0.495632 2 1 ack 40 ------- 1 3.0 0.0 12 123
+ 0.496 1 2 cbr 1000 ------- 2 1.0 2.0 99 127
- 0.496 1 2 cbr 1000 ------- 2 1.0 2.0 99 127
r 0.497232 3 2 ack 40 ------- 1 3.0 0.0 13 124
+ 0.497232 2 1 ack 40 ------- 1 3.0 0.0 13 124
- 0.497232 2 1 ack 40 ------- 1 3.0 0.0 13 124
r 0.4988 1 2 cbr 1000 ------- 2 1.0 2.0 97 125
+ 0.5 1 2 cbr 1000 ------- 2 1.0 2.0 100 128
- 0.5 1 2 cbr 1000 ------- 2 1.0 2.0 100 128
r 0.502464 2 1 ack 40 ------- 1 3.0 0.0 8 118
+ 0.502464 1 0 ack 40 ------- 1 3.0 0.0 8 118
- 0.502464 1 0 ack 40 ------- 1 3.0 0.0 8 118
r 0.5028 1 2 cbr 1000 ------- 2 1.0 2.0 98 126
r 0.503264 2 1 ack 40 ------- 1 3.0 0.0 9 119
+ 0.503264 1 0 ack 40 ------- 1 3.0 0.0 9 119
- 0.503264 1 0 ack 40 ------- 1 3.0 0.0 9 119
+ 0.504 1 2 cbr 1000 ------- 2 1.0 2.0 101 129
- 0.504 1 2 cbr 1000 ------- 2 1.0 2.0 101 129
r 0.504064 2 1 ack 40 ------- 1 3.0 0.0 10 120
+ 0.504064 1 0 ack 40 ------- 1 3.0 0.0 10 120
- 0.504064 1 0 ack 40 ------- 1 3.0 0.0 10 120
r 0.504864 2 1 ack 40 ------- 1 3.0 0.0 11 122
+ 0.504864 1 0 ack 40 ------- 1 3.0 0.0 11 122
- 0.504864 1 0 ack 40 ------- 1 3.0 0.0 11 122
r 0.505664 2 1 ack 40 ------- 1 3.0 0.0 12 123
+ 0.505664 1 0 ack 40 ------- 1 3.0 0.0 12 123
- 0.505664 1 0 ack 40 ------- 1 3.0 0.0 12 123
r 0.5068 1 2 cbr 1000 ------- 2 1.0 2.0 99 127
r 0.507264 2 1 ack 40 ------- 1 3.0 0.0 13 124
+ 0.507264 1 0 ack 40 ------- 1 3.0 0.0 13 124
- 0.507264 1 0 ack 40 ------- 1 3.0 0.0 13 124
+ 0.508 1 2 cbr 1000 ------- 2 1.0 2.0 102 130
- 0.508 1 2 cbr 1000 ------- 2 1.0 2.0 102 130
r 0.5108 1 2 cbr 1000 ------- 2 1.0 2.0 100 128
+ 0.512 1 2 cbr 1000 ------- 2 1.0 2.0 103 131
- 0.512 1 2 cbr 1000 ------- 2 1.0 2.0 103 131
r 0.512496 1 0 ack 40 ------- 1 3.0 0.0 8 118
+ 0.512496 0 1 tcp 1000 ------- 1 0.0 3.0 14 132
- 0.512496 0 1 tcp 1000 ------- 1 0.0 3.0 14 132
r 0.513296 1 0 ack 40 ------- 1 3.0 0.0 9 119
+ 0.513296 0 1 tcp 1000 ------- 1 0.0 3.0 15 133
- 0.513296 0 1 tcp 1000 ------- 1 0.0 3.0 15 133
r 0.514096 1 0 ack 40 ------- 1 3.0 0.0 10 120
+ 0.514096 0 1 tcp 1000 ------- 1 0.0 3.0 16 134
- 0.514096 0 1 tcp 1000 ------- 1 0.0 3.0 16 134
r 0.5148 1 2 cbr 1000 ------- 2 1.0 2.0 101 129
r 0.514896 1 0 ack 40 ------- 1 3.0 0.0 11 122
+ 0.514896 0 1 tcp 1000 ------- 1 0.0 3.0 17 135
- 0.514896 0 1 tcp 1000 ------- 1 0.0 3.0 17 135
r 0.515696 1 0 ack 40 ------- 1 3.0 0.0 12 123
+ 0.515696 0 1 tcp 1000 ------- 1 0.0 3.0 18 136
- 0.515696 0 1 tcp 1000 ------- 1 0.0 3.0 18 136
+ 0.516 1 2 cbr 1000 ------- 2 1.0 2.0 104 137
- 0.516 1 2 cbr 1000 ------- 2 1.0 2.0 104 137
r 0.517296 1 0 ack 40 ------- 1 3.0 0.0 13 124
+ 0.517296 0 1 tcp 1000 ------- 1 0.0 3.0 19 138
- 0.517296 0 1 tcp 1000 ------- 1 0.0 3.0 19 138
r 0.5188 1 2 cbr 1000 ------- 2 1.0 2.0 102 130
+ 0.52 1 2 cbr 1000 ------- 2 1.0 2.0 105 139
- 0.52 1 2 cbr 1000 ------- 2 1.0 2.0 105 139
r 0.5228 1 2 cbr 1000 ------- 2 1.0 2.0 103 131
r 0.523296 0 1 tcp 1000 ------- 1 0.0 3.0 14 132
+ 0.523296 1 2 tcp 1000 ------- 1 0.0 3.0 14 132
- 0.523296 1 2 tcp 1000 ------- 1 0.0 3.0 14 132
+ 0.524 1 2 cbr 1000 ------- 2 1.0 2.0 106 140
r 0.524096 0 1 tcp 1000 ------- 1 0.0 3.0 15 133
+ 0.524096 1 2 tcp 1000 ------- 1 0.0 3.0 15 133
- 0.524096 1 2 cbr 1000 ------- 2 1.0 2.0 106 140
r 0.524896 0 1 tcp 1000 ------- 1 0.0 3.0 16 134
+ 0.524896 1 2 tcp 1000 ------- 1 0.0 3.0 16 134
- 0.524896 1 2 tcp 1000 ------- 1 0.0 3.0 15 133
r 0.525696 0 1 tcp 1000 ------- 1 0.0 3.0 17 135
+ 0.525696 1 2 tcp 1000 ------- 1 0.0 3.0 17 135
- 0.525696 1 2 tcp 1000 ------- 1 0.0 3.0 16 134
r 0.526496 0 1 tcp 1000 ------- 1 0.0 3.0 18 136
+ 0.526496 1 2 tcp 1000 ------- 1 0.0 3.0 18 136
- 0.526496 1 2 tcp 1000 ------- 1 0.0 3.0 17 135
r 0.5268 1 2 cbr 1000 ------- 2 1.0 2.0 104 137
- 0.527296 1 2 tcp 1000 ------- 1 0.0 3.0 18 136
+ 0.528 1 2 cbr 1000 ------- 2 1.0 2.0 107 141
r 0.528096 0 1 tcp 1000 ------- 1 0.0 3.0 19 138
+ 0.528096 1 2 tcp 1000 ------- 1 0.0 3.0 19 138
- 0.528096 1 2 cbr 1000 ------- 2 1.0 2.0 107 141
- 0.528896 1 2 tcp 1000 ------- 1 0.0 3.0 19 138
r 0.5308 1 2 cbr 1000 ------- 2 1.0 2.0 105 139
+ 0.532 1 2 cbr 1000 ------- 2 1.0 2.0 108 142
- 0.532 1 2 cbr 1000 ------- 2 1.0 2.0 108 142
r 0.534096 1 2 tcp 1000 ------- 1 0.0 3.0 14 132
+ 0.534096 2 3 tcp 1000 ------- 1 0.0 3.0 14 132
- 0.534096 2 3 tcp 1000 ------- 1 0.0 3.0 14 132
r 0.534896 1 2 cbr 1000 ------- 2 1.0 2.0 106 140
r 0.535696 1 2 tcp 1000 ------- 1 0.0 3.0 15 133
+ 0.535696 2 3 tcp 1000 ------- 1 0.0 3.0 15 133
- 0.535696 2 3 tcp 1000 ------- 1 0.0 3.0 15 133
+ 0.536 1 2 cbr 1000 ------- 2 1.0 2.0 109 143
- 0.536 1 2 cbr 1000 ------- 2 1.0 2.0 109 143
r 0.536496 1 2 tcp 1000 ------- 1 0.0 3.0 16 134
+ 0.536496 2 3 tcp 1000 ------- 1 0.0 3.0 16 134
- 0.536496 2 3 tcp 1000 ------- 1 0.0 3.0 16 134
r 0.537296 1 2 tcp 1000 ------- 1 0.0 3.0 17 135
+ 0.537296 2 3 tcp 1000 ------- 1 0.0 3.0 17 135
- 0.537296 2 3 tcp 1000 ------- 1 0.0 3.0 17 135
r 0.538096 1 2 tcp 1000 ------- 1 0.0 3.0 18 136
+ 0.538096 2 3 tcp 1000 ------- 1 0.0 3.0 18 136
- 0.538096 2 3 tcp 1000 ------- 1 0.0 3.0 18 136
r 0.538896 1 2 cbr 1000 ------- 2 1.0 2.0 107 141
r 0.539696 1 2 tcp 1000 ------- 1 0.0 3.0 19 138
+ 0.539696 2 3 tcp 1000 ------- 1 0.0 3.0 19 138
- 0.539696 2 3 tcp 1000 ------- 1 0.0 3.0 19 138
+ 0.54 1 2 cbr 1000 ------- 2 1.0 2.0 110 144
- 0.54 1 2 cbr 1000 ------- 2 1.0 2.0 110 144
r 0.5428 1 2 cbr 1000 ------- 2 1.0 2.0 108 142
+ 0.544 1 2 cbr 1000 ------- 2 1.0 2.0 111 145
- 0.544 1 2 cbr 1000 ------- 2 1.0 2.0 111 145
r 0.544896 2 3 tcp 1000 ------- 1 0.0 3.0 14 132
+ 0.544896 3 2 ack 40 ------- 1 3.0 0.0 14 146
- 0.544896 3 2 ack 40 ------- 1 3.0 0.0 14 146
r 0.546496 2 3 tcp 1000 ------- 1 0.0 3.0 15 133
+ 0.546496 3 2 ack 40 ------- 1 3.0 0.0 15 147
- 0.546496 3 2 ack 40 ------- 1 3.0 0.0 15 147
r 0.5468 1 2 cbr 1000 ------- 2 1.0 2.0 109 143
r 0.547296 2 3 tcp 1000 ------- 1 0.0 3.0 16 134
+ 0.547296 3 2 ack 40 ------- 1 3.0 0.0 16 148
- 0.547296 3 2 ack 40 ------- 1 3.0 0.0 16 148
+ 0.548 1 2 cbr 1000 ------- 2 1.0 2.0 112 149
- 0.548 1 2 cbr 1000 ------- 2 1.0 2.0 112 149
r 0.548096 2 3 tcp 1000 ------- 1 0.0 3.0 17 135
+ 0.548096 3 2 ack 40 ------- 1 3.0 0.0 17 150
- 0.548096 3 2 ack 40 ------- 1 3.0 0.0 17 150
r 0.548896 2 3 tcp 1000 ------- 1 0.0 3.0 18 136
+ 0.548896 3 2 ack 40 ------- 1 3.0 0.0 18 151
- 0.548896 3 2 ack 40 ------- 1 3.0 0.0 18 151