+ 0.1 1 2 cbr 1000 ------- 2 1.0 2.0 0 0
- 0.1 1 2 cbr 1000 ------- 2 1.0 2.0 0 0
+ 0.102667 1 2 cbr 1000 ------- 2 1.0 2.0 1 1
- 0.102667 1 2 cbr 1000 ------- 2 1.0 2.0 1 1
+ 0.105333 1 2 cbr 1000 ------- 2 1.0 2.0 2 2
- 0.105333 1 2 cbr 1000 ------- 2 1.0 2.0 2 2
+ 0.108 1 2 cbr 1000 ------- 2 1.0 2.0 3 3
- 0.108 1 2 cbr 1000 ------- 2 1.0 2.0 3 3
+ 0.110667 1 2 cbr 1000 ------- 2 1.0 2.0 4 4
- 0.110667 1 2 cbr 1000 ------- 2 1.0 2.0 4 4
r 0.1108 1 2 cbr 1000 ------- 2 1.0 2.0 0 0
+ 0.113333 1 2 cbr 1000 ------- 2 1.0 2.0 5 5
- 0.113333 1 2 cbr 1000 ------- 2 1.0 2.0 5 5
r 0.113467 1 2 cbr 1000 ------- 2 1.0 2.0 1 1
+ 0.116 1 2 cbr 1000 ------- 2 1.0 2.0 6 6
- 0.116 1 2 cbr 1000 ------- 2 1.0 2.0 6 6
r 0.116133 1 2 cbr 1000 ------- 2 1.0 2.0 2 2
+ 0.118667 1 2 cbr 1000 ------- 2 1.0 2.0 7 7
- 0.118667 1 2 cbr 1000 ------- 2 1.0 2.0 7 7
r 0.1188 1 2 cbr 1000 ------- 2 1.0 2.0 3 3
+ 0.121333 1 2 cbr 1000 ------- 2 1.0 2.0 8 8
- 0.121333 1 2 cbr 1000 ------- 2 1.0 2.0 8 8
r 0.121467 1 2 cbr 1000 ------- 2 1.0 2.0 4 4
+ 0.124 1 2 cbr 1000 ------- 2 1.0 2.0 9 9
- 0.124 1 2 cbr 1000 ------- 2 1.0 2.0 9 9
r 0.124133 1 2 cbr 1000 ------- 2 1.0 2.0 5 5
+ 0.126667 1 2 cbr 1000 ------- 2 1.0 2.0 10 10
- 0.126667 1 2 cbr 1000 ------- 2 1.0 2.0 10 10
r 0.1268 1 2 cbr 1000 ------- 2 1.0 2.0 6 6
+ 0.129333 1 2 cbr 1000 ------- 2 1.0 2.0 11 11
- 0.129333 1 2 cbr 1000 ------- 2 1.0 2.0 11 11
r 0.129467 1 2 cbr 1000 ------- 2 1.0 2.0 7 7
+ 0.132 1 2 cbr 1000 ------- 2 1.0 2.0 12 12
- 0.132 1 2 cbr 1000 ------- 2 1.0 2.0 12 12
r 0.132133 1 2 cbr 1000 ------- 2 1.0 2.0 8 8
+ 0.134667 1 2 cbr 1000 ------- 2 1.0 2.0 13 13
- 0.134667 1 2 cbr 1000 ------- 2 1.0 2.0 13 13
r 0.1348 1 2 cbr 1000 ------- 2 1.0 2.0 9 9
+ 0.137333 1 2 cbr 1000 ------- 2 1.0 2.0 14 14
- 0.137333 1 2 cbr 1000 ------- 2 1.0 2.0 14 14
r 0.137467 1 2 cbr 1000 ------- 2 1.0 2.0 10 10
+ 0.14 1 2 cbr 1000 ------- 2 1.0 2.0 15 15
- 0.14 1 2 cbr 1000 ------- 2 1.0 2.0 15 15
r 0.140133 1 2 cbr 1000 ------- 2 1.0 2.0 11 11
+ 0.142667 1 2 cbr 1000 ------- 2 1.0 2.0 16 16
- 0.142667 1 2 cbr 1000 ------- 2 1.0 2.0 16 16
r 0.1428 1 2 cbr 1000 ------- 2 1.0 2.0 12 12
+ 0.145333 1 2 cbr 1000 ------- 2 1.0 2.0 17 17
- 0.145333 1 2 cbr 1000 ------- 2 1.0 2.0 17 17
r 0.145467 1 2 cbr 1000 ------- 2 1.0 2.0 13 13
+ 0.148 1 2 cbr 1000 ------- 2 1.0 2.0 18 18
- 0.148 1 2 cbr 1000 ------- 2 1.0 2.0 18 18
r 0.148133 1 2 cbr 1000 ------- 2 1.0 2.0 14 14
+ 0.150667 1 2 cbr 1000 ------- 2 1.0 2.0 19 19
- 0.150667 1 2 cbr 1000 ------- 2 1.0 2.0 19 19
r 0.1508 1 2 cbr 1000 ------- 2 1.0 2.0 15 15
+ 0.153333 1 2 cbr 1000 ------- 2 1.0 2.0 20 20
- 0.153333 1 2 cbr 1000 ------- 2 1.0 2.0 20 20
r 0.153467 1 2 cbr 1000 ------- 2 1.0 2.0 16 16
+ 0.156 1 2 cbr 1000 ------- 2 1.0 2.0 21 21
- 0.156 1 2 cbr 1000 ------- 2 1.0 2.0 21 21
r 0.156133 1 2 cbr 1000 ------- 2 1.0 2.0 17 17
+ 0.158667 1 2 cbr 1000 ------- 2 1.0 2.0 22 22
- 0.158667 1 2 cbr 1000 ------- 2 1.0 2.0 22 22
r 0.1588 1 2 cbr 1000 ------- 2 1.0 2.0 18 18
+ 0.161333 1 2 cbr 1000 ------- 2 1.0 2.0 23 23
- 0.161333 1 2 cbr 1000 ------- 2 1.0 2.0 23 23
r 0.161467 1 2 cbr 1000 ------- 2 1.0 2.0 19 19
+ 0.164 1 2 cbr 1000 ------- 2 1.0 2.0 24 24
- 0.164 1 2 cbr 1000 ------- 2 1.0 2.0 24 24
r 0.164133 1 2 cbr 1000 ------- 2 1.0 2.0 20 20
+ 0.166667 1 2 cbr 1000 ------- 2 1.0 2.0 25 25
- 0.166667 1 2 cbr 1000 ------- 2 1.0 2.0 25 25
r 0.1668 1 2 cbr 1000 ------- 2 1.0 2.0 21 21
+ 0.169333 1 2 cbr 1000 ------- 2 1.0 2.0 26 26
- 0.169333 1 2 cbr 1000 ------- 2 1.0 2.0 26 26
r 0.169467 1 2 cbr 1000 ------- 2 1.0 2.0 22 22
+ 0.172 1 2 cbr 1000 ------- 2 1.0 2.0 27 27
- 0.172 1 2 cbr 1000 ------- 2 1.0 2.0 27 27
r 0.172133 1 2 cbr 1000 ------- 2 1.0 2.0 23 23
+ 0.174667 1 2 cbr 1000 ------- 2 1.0 2.0 28 28
- 0.174667 1 2 cbr 1000 ------- 2 1.0 2.0 28 28
r 0.1748 1 2 cbr 1000 ------- 2 1.0 2.0 24 24
+ 0.177333 1 2 cbr 1000 ------- 2 1.0 2.0 29 29
- 0.177333 1 2 cbr 1000 ------- 2 1.0 2.0 29 29
r 0.177467 1 2 cbr 1000 ------- 2 1.0 2.0 25 25
+ 0.18 1 2 cbr 1000 ------- 2 1.0 2.0 30 30
- 0.18 1 2 cbr 1000 ------- 2 1.0 2.0 30 30
r 0.180133 1 2 cbr 1000 ------- 2 1.0 2.0 26 26
+ 0.182667 1 2 cbr 1000 ------- 2 1.0 2.0 31 31
- 0.182667 1 2 cbr 1000 ------- 2 1.0 2.0 31 31
r 0.1828 1 2 cbr 1000 ------- 2 1.0 2.0 27 27
+ 0.185333 1 2 cbr 1000 ------- 2 1.0 2.0 32 32
- 0.185333 1 2 cbr 1000 ------- 2 1.0 2.0 32 32
r 0.185467 1 2 cbr 1000 ------- 2 1.0 2.0 28 28
+ 0.188 1 2 cbr 1000 ------- 2 1.0 2.0 33 33
- 0.188 1 2 cbr 1000 ------- 2 1.0 2.0 33 33
r 0.188133 1 2 cbr 1000 ------- 2 1.0 2.0 29 29
+ 0.190667 1 2 cbr 1000 ------- 2 1.0 2.0 34 34
- 0.190667 1 2 cbr 1000 ------- 2 1.0 2.0 34 34
r 0.1908 1 2 cbr 1000 ------- 2 1.0 2.0 30 30
+ 0.193333 1 2 cbr 1000 ------- 2 1.0 2.0 35 35
- 0.193333 1 2 cbr 1000 ------- 2 1.0 2.0 35 35
r 0.193467 1 2 cbr 1000 ------- 2 1.0 2.0 31 31
+ 0.196 1 2 cbr 1000 ------- 2 1.0 2.0 36 36
- 0.196 1 2 cbr 1000 ------- 2 1.0 2.0 36 36
r 0.196133 1 2 cbr 1000 ------- 2 1.0 2.0 32 32
+ 0.198667 1 2 cbr 1000 ------- 2 1.0 2.0 37 37
- 0.198667 1 2 cbr 1000 ------- 2 1.0 2.0 37 37
r 0.1988 1 2 cbr 1000 ------- 2 1.0 2.0 33 33
+ 0.2 0 1 tcp 40 ------- 1 0.0 3.0 0 38
- 0.2 0 1 tcp 40 ------- 1 0.0 3.0 0 38
+ 0.201333 1 2 cbr 1000 ------- 2 1.0 2.0 38 39
- 0.201333 1 2 cbr 1000 ------- 2 1.0 2.0 38 39
r 0.201467 1 2 cbr 1000 ------- 2 1.0 2.0 34 34
+ 0.204 1 2 cbr 1000 ------- 2 1.0 2.0 39 40
- 0.204 1 2 cbr 1000 ------- 2 1.0 2.0 39 40
r 0.204133 1 2 cbr 1000 ------- 2 1.0 2.0 35 35
+ 0.206667 1 2 cbr 1000 ------- 2 1.0 2.0 40 41
- 0.206667 1 2 cbr 1000 ------- 2 1.0 2.0 40 41
r 0.2068 1 2 cbr 1000 ------- 2 1.0 2.0 36 36
+ 0.209333 1 2 cbr 1000 ------- 2 1.0 2.0 41 42
- 0.209333 1 2 cbr 1000 ------- 2 1.0 2.0 41 42
r 0.209467 1 2 cbr 1000 ------- 2 1.0 2.0 37 37
r 0.210032 0 1 tcp 40 ------- 1 0.0 3.0 0 38
+ 0.210032 1 2 tcp 40 ------- 1 0.0 3.0 0 38
- 0.210133 1 2 tcp 40 ------- 1 0.0 3.0 0 38
+ 0.212 1 2 cbr 1000 ------- 2 1.0 2.0 42 43
- 0.212 1 2 cbr 1000 ------- 2 1.0 2.0 42 43
r 0.212133 1 2 cbr 1000 ------- 2 1.0 2.0 38 39
+ 0.214667 1 2 cbr 1000 ------- 2 1.0 2.0 43 44
- 0.214667 1 2 cbr 1000 ------- 2 1.0 2.0 43 44
r 0.2148 1 2 cbr 1000 ------- 2 1.0 2.0 39 40
+ 0.217333 1 2 cbr 1000 ------- 2 1.0 2.0 44 45
- 0.217333 1 2 cbr 1000 ------- 2 1.0 2.0 44 45
r 0.217467 1 2 cbr 1000 ------- 2 1.0 2.0 40 41
+ 0.22 1 2 cbr 1000 ------- 2 1.0 2.0 45 46
- 0.22 1 2 cbr 1000 ------- 2 1.0 2.0 45 46
r 0.220133 1 2 cbr 1000 ------- 2 1.0 2.0 41 42
r 0.220165 1 2 tcp 40 ------- 1 0.0 3.0 0 38
+ 0.220165 2 3 tcp 40 ------- 1 0.0 3.0 0 38
- 0.220165 2 3 tcp 40 ------- 1 0.0 3.0 0 38
+ 0.222667 1 2 cbr 1000 ------- 2 1.0 2.0 46 47
- 0.222667 1 2 cbr 1000 ------- 2 1.0 2.0 46 47
r 0.2228 1 2 cbr 1000 ------- 2 1.0 2.0 42 43
+ 0.225333 1 2 cbr 1000 ------- 2 1.0 2.0 47 48
- 0.225333 1 2 cbr 1000 ------- 2 1.0 2.0 47 48
r 0.225467 1 2 cbr 1000 ------- 2 1.0 2.0 43 44
+ 0.228 1 2 cbr 1000 ------- 2 1.0 2.0 48 49
- 0.228 1 2 cbr 1000 ------- 2 1.0 2.0 48 49
r 0.228133 1 2 cbr 1000 ------- 2 1.0 2.0 44 45
r 0.230197 2 3 tcp 40 ------- 1 0.0 3.0 0 38
+ 0.230197 3 2 ack 40 ------- 1 3.0 0.0 0 50
- 0.230197 3 2 ack 40 ------- 1 3.0 0.0 0 50
+ 0.230667 1 2 cbr 1000 ------- 2 1.0 2.0 49 51
- 0.230667 1 2 cbr 1000 ------- 2 1.0 2.0 49 51
r 0.2308 1 2 cbr 1000 ------- 2 1.0 2.0 45 46
+ 0.233333 1 2 cbr 1000 ------- 2 1.0 2.0 50 52
- 0.233333 1 2 cbr 1000 ------- 2 1.0 2.0 50 52
r 0.233467 1 2 cbr 1000 ------- 2 1.0 2.0 46 47
+ 0.236 1 2 cbr 1000 ------- 2 1.0 2.0 51 53
- 0.236 1 2 cbr 1000 ------- 2 1.0 2.0 51 53
r 0.236133 1 2 cbr 1000 ------- 2 1.0 2.0 47 48
+ 0.238667 1 2 cbr 1000 ------- 2 1.0 2.0 52 54
- 0.238667 1 2 cbr 1000 ------- 2 1.0 2.0 52 54
r 0.2388 1 2 cbr 1000 ------- 2 1.0 2.0 48 49
r 0.240229 3 2 ack 40 ------- 1 3.0 0.0 0 50
+ 0.240229 2 1 ack 40 ------- 1 3.0 0.0 0 50
- 0.240229 2 1 ack 40 ------- 1 3.0 0.0 0 50
+ 0.241333 1 2 cbr 1000 ------- 2 1.0 2.0 53 55
- 0.241333 1 2 cbr 1000 ------- 2 1.0 2.0 53 55
r 0.241467 1 2 cbr 1000 ------- 2 1.0 2.0 49 51
+ 0.244 1 2 cbr 1000 ------- 2 1.0 2.0 54 56
- 0.244 1 2 cbr 1000 ------- 2 1.0 2.0 54 56
r 0.244133 1 2 cbr 1000 ------- 2 1.0 2.0 50 52
+ 0.246667 1 2 cbr 1000 ------- 2 1.0 2.0 55 57
- 0.246667 1 2 cbr 1000 ------- 2 1.0 2.0 55 57
r 0.2468 1 2 cbr 1000 ------- 2 1.0 2.0 51 53
+ 0.249333 1 2 cbr 1000 ------- 2 1.0 2.0 56 58
- 0.249333 1 2 cbr 1000 ------- 2 1.0 2.0 56 58
r 0.249467 1 2 cbr 1000 ------- 2 1.0 2.0 52 54
r 0.250261 2 1 ack 40 ------- 1 3.0 0.0 0 50
+ 0.250261 1 0 ack 40 ------- 1 3.0 0.0 0 50
- 0.250261 1 0 ack 40 ------- 1 3.0 0.0 0 50
+ 0.252 1 2 cbr 1000 ------- 2 1.0 2.0 57 59
- 0.252 1 2 cbr 1000 ------- 2 1.0 2.0 57 59
r 0.252133 1 2 cbr 1000 ------- 2 1.0 2.0 53 55
+ 0.254667 1 2 cbr 1000 ------- 2 1.0 2.0 58 60
- 0.254667 1 2 cbr 1000 ------- 2 1.0 2.0 58 60
r 0.2548 1 2 cbr 1000 ------- 2 1.0 2.0 54 56
+ 0.257333 1 2 cbr 1000 ------- 2 1.0 2.0 59 61
- 0.257333 1 2 cbr 1000 ------- 2 1.0 2.0 59 61
r 0.257467 1 2 cbr 1000 ------- 2 1.0 2.0 55 57
+ 0.26 1 2 cbr 1000 ------- 2 1.0 2.0 60 62
- 0.26 1 2 cbr 1000 ------- 2 1.0 2.0 60 62
r 0.260133 1 2 cbr 1000 ------- 2 1.0 2.0 56 58
r 0.260293 1 0 ack 40 ------- 1 3.0 0.0 0 50
+ 0.260293 0 1 tcp 1040 ------- 1 0.0 3.0 1 63
- 0.260293 0 1 tcp 1040 ------- 1 0.0 3.0 1 63
+ 0.260293 0 1 tcp 1040 ------- 1 0.0 3.0 2 64
- 0.261125 0 1 tcp 1040 ------- 1 0.0 3.0 2 64
+ 0.262667 1 2 cbr 1000 ------- 2 1.0 2.0 61 65
- 0.262667 1 2 cbr 1000 ------- 2 1.0 2.0 61 65
r 0.2628 1 2 cbr 1000 ------- 2 1.0 2.0 57 59
+ 0.265333 1 2 cbr 1000 ------- 2 1.0 2.0 62 66
- 0.265333 1 2 cbr 1000 ------- 2 1.0 2.0 62 66
r 0.265467 1 2 cbr 1000 ------- 2 1.0 2.0 58 60
+ 0.268 1 2 cbr 1000 ------- 2 1.0 2.0 63 67
- 0.268 1 2 cbr 1000 ------- 2 1.0 2.0 63 67
r 0.268133 1 2 cbr 1000 ------- 2 1.0 2.0 59 61
+ 0.270667 1 2 cbr 1000 ------- 2 1.0 2.0 64 68
- 0.270667 1 2 cbr 1000 ------- 2 1.0 2.0 64 68
r 0.2708 1 2 cbr 1000 ------- 2 1.0 2.0 60 62
r 0.271125 0 1 tcp 1040 ------- 1 0.0 3.0 1 63
+ 0.271125 1 2 tcp 1040 ------- 1 0.0 3.0 1 63
- 0.271467 1 2 tcp 1040 ------- 1 0.0 3.0 1 63
r 0.271957 0 1 tcp 1040 ------- 1 0.0 3.0 2 64
+ 0.271957 1 2 tcp 1040 ------- 1 0.0 3.0 2 64
- 0.272299 1 2 tcp 1040 ------- 1 0.0 3.0 2 64
+ 0.273333 1 2 cbr 1000 ------- 2 1.0 2.0 65 69
- 0.273333 1 2 cbr 1000 ------- 2 1.0 2.0 65 69
r 0.273467 1 2 cbr 1000 ------- 2 1.0 2.0 61 65
+ 0.276 1 2 cbr 1000 ------- 2 1.0 2.0 66 70
- 0.276 1 2 cbr 1000 ------- 2 1.0 2.0 66 70
r 0.276133 1 2 cbr 1000 ------- 2 1.0 2.0 62 66
+ 0.278667 1 2 cbr 1000 ------- 2 1.0 2.0 67 71
- 0.278667 1 2 cbr 1000 ------- 2 1.0 2.0 67 71
r 0.2788 1 2 cbr 1000 ------- 2 1.0 2.0 63 67
+ 0.281333 1 2 cbr 1000 ------- 2 1.0 2.0 68 72
- 0.281333 1 2 cbr 1000 ------- 2 1.0 2.0 68 72
r 0.281467 1 2 cbr 1000 ------- 2 1.0 2.0 64 68
r 0.282299 1 2 tcp 1040 ------- 1 0.0 3.0 1 63
+ 0.282299 2 3 tcp 1040 ------- 1 0.0 3.0 1 63
- 0.282299 2 3 tcp 1040 ------- 1 0.0 3.0 1 63
r 0.283131 1 2 tcp 1040 ------- 1 0.0 3.0 2 64
+ 0.283131 2 3 tcp 1040 ------- 1 0.0 3.0 2 64
- 0.283131 2 3 tcp 1040 ------- 1 0.0 3.0 2 64
+ 0.284 1 2 cbr 1000 ------- 2 1.0 2.0 69 73
- 0.284 1 2 cbr 1000 ------- 2 1.0 2.0 69 73
r 0.284133 1 2 cbr 1000 ------- 2 1.0 2.0 65 69
+ 0.286667 1 2 cbr 1000 ------- 2 1.0 2.0 70 74
- 0.286667 1 2 cbr 1000 ------- 2 1.0 2.0 70 74
r 0.2868 1 2 cbr 1000 ------- 2 1.0 2.0 66 70
+ 0.289333 1 2 cbr 1000 ------- 2 1.0 2.0 71 75
- 0.289333 1 2 cbr 1000 ------- 2 1.0 2.0 71 75
r 0.289467 1 2 cbr 1000 ------- 2 1.0 2.0 67 71
+ 0.292 1 2 cbr 1000 ------- 2 1.0 2.0 72 76
- 0.292 1 2 cbr 1000 ------- 2 1.0 2.0 72 76
r 0.292133 1 2 cbr 1000 ------- 2 1.0 2.0 68 72
r 0.293131 2 3 tcp 1040 ------- 1 0.0 3.0 1 63
+ 0.293131 3 2 ack 40 ------- 1 3.0 0.0 1 77
- 0.293131 3 2 ack 40 ------- 1 3.0 0.0 1 77
r 0.293963 2 3 tcp 1040 ------- 1 0.0 3.0 2 64
+ 0.293963 3 2 ack 40 ------- 1 3.0 0.0 2 78
- 0.293963 3 2 ack 40 ------- 1 3.0 0.0 2 78
+ 0.294667 1 2 cbr 1000 ------- 2 1.0 2.0 73 79
- 0.294667 1 2 cbr 1000 ------- 2 1.0 2.0 73 79
r 0.2948 1 2 cbr 1000 ------- 2 1.0 2.0 69 73
+ 0.297333 1 2 cbr 1000 ------- 2 1.0 2.0 74 80
- 0.297333 1 2 cbr 1000 ------- 2 1.0 2.0 74 80
r 0.297467 1 2 cbr 1000 ------- 2 1.0 2.0 70 74
+ 0.3 1 2 cbr 1000 ------- 2 1.0 2.0 75 81
- 0.3 1 2 cbr 1000 ------- 2 1.0 2.0 75 81
r 0.300133 1 2 cbr 1000 ------- 2 1.0 2.0 71 75
+ 0.302667 1 2 cbr 1000 ------- 2 1.0 2.0 76 82
- 0.302667 1 2 cbr 1000 ------- 2 1.0 2.0 76 82
r 0.3028 1 2 cbr 1000 ------- 2 1.0 2.0 72 76
r 0.303163 3 2 ack 40 ------- 1 3.0 0.0 1 77
+ 0.303163 2 1 ack 40 ------- 1 3.0 0.0 1 77
- 0.303163 2 1 ack 40 ------- 1 3.0 0.0 1 77
r 0.303995 3 2 ack 40 ------- 1 3.0 0.0 2 78
+ 0.303995 2 1 ack 40 ------- 1 3.0 0.0 2 78
- 0.303995 2 1 ack 40 ------- 1 3.0 0.0 2 78
+ 0.305333 1 2 cbr 1000 ------- 2 1.0 2.0 77 83
- 0.305333 1 2 cbr 1000 ------- 2 1.0 2.0 77 83
r 0.305467 1 2 cbr 1000 ------- 2 1.0 2.0 73 79
+ 0.308 1 2 cbr 1000 ------- 2 1.0 2.0 78 84
- 0.308 1 2 cbr 1000 ------- 2 1.0 2.0 78 84
r 0.308133 1 2 cbr 1000 ------- 2 1.0 2.0 74 80
+ 0.310667 1 2 cbr 1000 ------- 2 1.0 2.0 79 85
- 0.310667 1 2 cbr 1000 ------- 2 1.0 2.0 79 85
r 0.3108 1 2 cbr 1000 ------- 2 1.0 2.0 75 81
r 0.313195 2 1 ack 40 ------- 1 3.0 0.0 1 77
+ 0.313195 1 0 ack 40 ------- 1 3.0 0.0 1 77
- 0.313195 1 0 ack 40 ------- 1 3.0 0.0 1 77
+ 0.313333 1 2 cbr 1000 ------- 2 1.0 2.0 80 86
- 0.313333 1 2 cbr 1000 ------- 2 1.0 2.0 80 86
r 0.313467 1 2 cbr 1000 ------- 2 1.0 2.0 76 82
r 0.314027 2 1 ack 40 ------- 1 3.0 0.0 2 78
+ 0.314027 1 0 ack 40 ------- 1 3.0 0.0 2 78
- 0.314027 1 0 ack 40 ------- 1 3.0 0.0 2 78
+ 0.316 1 2 cbr 1000 ------- 2 1.0 2.0 81 87
- 0.316 1 2 cbr 1000 ------- 2 1.0 2.0 81 87
r 0.316133 1 2 cbr 1000 ------- 2 1.0 2.0 77 83
+ 0.318667 1 2 cbr 1000 ------- 2 1.0 2.0 82 88
- 0.318667 1 2 cbr 1000 ------- 2 1.0 2.0 82 88
r 0.3188 1 2 cbr 1000 ------- 2 1.0 2.0 78 84
+ 0.321333 1 2 cbr 1000 ------- 2 1.0 2.0 83 89
- 0.321333 1 2 cbr 1000 ------- 2 1.0 2.0 83 89
r 0.321467 1 2 cbr 1000 ------- 2 1.0 2.0 79 85
r 0.323227 1 0 ack 40 ------- 1 3.0 0.0 1 77
+ 0.323227 0 1 tcp 1040 ------- 1 0.0 3.0 3 90
- 0.323227 0 1 tcp 1040 ------- 1 0.0 3.0 3 90
+ 0.323227 0 1 tcp 1040 ------- 1 0.0 3.0 4 91
+ 0.324 1 2 cbr 1000 ------- 2 1.0 2.0 84 92
- 0.324 1 2 cbr 1000 ------- 2 1.0 2.0 84 92
r 0.324059 1 0 ack 40 ------- 1 3.0 0.0 2 78
+ 0.324059 0 1 tcp 1040 ------- 1 0.0 3.0 5 93
+ 0.324059 0 1 tcp 1040 ------- 1 0.0 3.0 6 94
- 0.324059 0 1 tcp 1040 ------- 1 0.0 3.0 4 91
r 0.324133 1 2 cbr 1000 ------- 2 1.0 2.0 80 86
- 0.324891 0 1 tcp 1040 ------- 1 0.0 3.0 5 93
- 0.325723 0 1 tcp 1040 ------- 1 0.0 3.0 6 94
+ 0.326667 1 2 cbr 1000 ------- 2 1.0 2.0 85 95
- 0.326667 1 2 cbr 1000 ------- 2 1.0 2.0 85 95
r 0.3268 1 2 cbr 1000 ------- 2 1.0 2.0 81 87
+ 0.329333 1 2 cbr 1000 ------- 2 1.0 2.0 86 96
- 0.329333 1 2 cbr 1000 ------- 2 1.0 2.0 86 96
r 0.329467 1 2 cbr 1000 ------- 2 1.0 2.0 82 88
+ 0.332 1 2 cbr 1000 ------- 2 1.0 2.0 87 97
- 0.332 1 2 cbr 1000 ------- 2 1.0 2.0 87 97
r 0.332133 1 2 cbr 1000 ------- 2 1.0 2.0 83 89
r 0.334059 0 1 tcp 1040 ------- 1 0.0 3.0 3 90
+ 0.334059 1 2 tcp 1040 ------- 1 0.0 3.0 3 90
- 0.334059 1 2 tcp 1040 ------- 1 0.0 3.0 3 90
+ 0.334667 1 2 cbr 1000 ------- 2 1.0 2.0 88 98
r 0.3348 1 2 cbr 1000 ------- 2 1.0 2.0 84 92
r 0.334891 0 1 tcp 1040 ------- 1 0.0 3.0 4 91
+ 0.334891 1 2 tcp 1040 ------- 1 0.0 3.0 4 91
- 0.334891 1 2 cbr 1000 ------- 2 1.0 2.0 88 98
- 0.335691 1 2 tcp 1040 ------- 1 0.0 3.0 4 91
r 0.335723 0 1 tcp 1040 ------- 1 0.0 3.0 5 93
+ 0.335723 1 2 tcp 1040 ------- 1 0.0 3.0 5 93
- 0.336523 1 2 tcp 1040 ------- 1 0.0 3.0 5 93
r 0.336555 0 1 tcp 1040 ------- 1 0.0 3.0 6 94
+ 0.336555 1 2 tcp 1040 ------- 1 0.0 3.0 6 94
+ 0.337333 1 2 cbr 1000 ------- 2 1.0 2.0 89 99
- 0.337355 1 2 tcp 1040 ------- 1 0.0 3.0 6 94
r 0.337467 1 2 cbr 1000 ------- 2 1.0 2.0 85 95
- 0.338187 1 2 cbr 1000 ------- 2 1.0 2.0 89 99
+ 0.34 1 2 cbr 1000 ------- 2 1.0 2.0 90 100
- 0.34 1 2 cbr 1000 ------- 2 1.0 2.0 90 100
r 0.340133 1 2 cbr 1000 ------- 2 1.0 2.0 86 96
+ 0.342667 1 2 cbr 1000 ------- 2 1.0 2.0 91 101
- 0.342667 1 2 cbr 1000 ------- 2 1.0 2.0 91 101
r 0.3428 1 2 cbr 1000 ------- 2 1.0 2.0 87 97
r 0.344891 1 2 tcp 1040 ------- 1 0.0 3.0 3 90
+ 0.344891 2 3 tcp 1040 ------- 1 0.0 3.0 3 90
- 0.344891 2 3 tcp 1040 ------- 1 0.0 3.0 3 90
+ 0.345333 1 2 cbr 1000 ------- 2 1.0 2.0 92 102
- 0.345333 1 2 cbr 1000 ------- 2 1.0 2.0 92 102
r 0.345691 1 2 cbr 1000 ------- 2 1.0 2.0 88 98
r 0.346523 1 2 tcp 1040 ------- 1 0.0 3.0 4 91
+ 0.346523 2 3 tcp 1040 ------- 1 0.0 3.0 4 91
- 0.346523 2 3 tcp 1040 ------- 1 0.0 3.0 4 91
r 0.347355 1 2 tcp 1040 ------- 1 0.0 3.0 5 93
+ 0.347355 2 3 tcp 1040 ------- 1 0.0 3.0 5 93
- 0.347355 2 3 tcp 1040 ------- 1 0.0 3.0 5 93
+ 0.348 1 2 cbr 1000 ------- 2 1.0 2.0 93 103
- 0.348 1 2 cbr 1000 ------- 2 1.0 2.0 93 103
r 0.348187 1 2 tcp 1040 ------- 1 0.0 3.0 6 94
+ 0.348187 2 3 tcp 1040 ------- 1 0.0 3.0 6 94
- 0.348187 2 3 tcp 1040 ------- 1 0.0 3.0 6 94
r 0.348987 1 2 cbr 1000 ------- 2 1.0 2.0 89 99
+ 0.350667 1 2 cbr 1000 ------- 2 1.0 2.0 94 104
- 0.350667 1 2 cbr 1000 ------- 2 1.0 2.0 94 104
r 0.3508 1 2 cbr 1000 ------- 2 1.0 2.0 90 100
+ 0.353333 1 2 cbr 1000 ------- 2 1.0 2.0 95 105
- 0.353333 1 2 cbr 1000 ------- 2 1.0 2.0 95 105
r 0.353467 1 2 cbr 1000 ------- 2 1.0 2.0 91 101
r 0.355723 2 3 tcp 1040 ------- 1 0.0 3.0 3 90
+ 0.355723 3 2 ack 40 ------- 1 3.0 0.0 3 106
- 0.355723 3 2 ack 40 ------- 1 3.0 0.0 3 106
+ 0.356 1 2 cbr 1000 ------- 2 1.0 2.0 96 107
- 0.356 1 2 cbr 1000 ------- 2 1.0 2.0 96 107
r 0.356133 1 2 cbr 1000 ------- 2 1.0 2.0 92 102
r 0.357355 2 3 tcp 1040 ------- 1 0.0 3.0 4 91
+ 0.357355 3 2 ack 40 ------- 1 3.0 0.0 4 108
- 0.357355 3 2 ack 40 ------- 1 3.0 0.0 4 108
r 0.358187 2 3 tcp 1040 ------- 1 0.0 3.0 5 93
+ 0.358187 3 2 ack 40 ------- 1 3.0 0.0 5 109
- 0.358187 3 2 ack 40 ------- 1 3.0 0.0 5 109
+ 0.358667 1 2 cbr 1000 ------- 2 1.0 2.0 97 110
- 0.358667 1 2 cbr 1000 ------- 2 1.0 2.0 97 110
r 0.3588 1 2 cbr 1000 ------- 2 1.0 2.0 93 103
r 0.359019 2 3 tcp 1040 ------- 1 0.0 3.0 6 94
+ 0.359019 3 2 ack 40 ------- 1 3.0 0.0 6 111
- 0.359019 3 2 ack 40 ------- 1 3.0 0.0 6 111
+ 0.361333 1 2 cbr 1000 ------- 2 1.0 2.0 98 112
- 0.361333 1 2 cbr 1000 ------- 2 1.0 2.0 98 112
r 0.361467 1 2 cbr 1000 ------- 2 1.0 2.0 94 104
+ 0.364 1 2 cbr 1000 ------- 2 1.0 2.0 99 113
- 0.364 1 2 cbr 1000 ------- 2 1.0 2.0 99 113
r 0.364133 1 2 cbr 1000 ------- 2 1.0 2.0 95 105
r 0.365755 3 2 ack 40 ------- 1 3.0 0.0 3 106
+ 0.365755 2 1 ack 40 ------- 1 3.0 0.0 3 106
- 0.365755 2 1 ack 40 ------- 1 3.0 0.0 3 106
+ 0.366667 1 2 cbr 1000 ------- 2 1.0 2.0 100 114
- 0.366667 1 2 cbr 1000 ------- 2 1.0 2.0 100 114
r 0.3668 1 2 cbr 1000 ------- 2 1.0 2.0 96 107
r 0.367387 3 2 ack 40 ------- 1 3.0 0.0 4 108
+ 0.367387 2 1 ack 40 ------- 1 3.0 0.0 4 108
- 0.367387 2 1 ack 40 ------- 1 3.0 0.0 4 108
r 0.368219 3 2 ack 40 ------- 1 3.0 0.0 5 109
+ 0.368219 2 1 ack 40 ------- 1 3.0 0.0 5 109
- 0.368219 2 1 ack 40 ------- 1 3.0 0.0 5 109
r 0.369051 3 2 ack 40 ------- 1 3.0 0.0 6 111
+ 0.369051 2 1 ack 40 ------- 1 3.0 0.0 6 111
- 0.369051 2 1 ack 40 ------- 1 3.0 0.0 6 111
+ 0.369333 1 2 cbr 1000 ------- 2 1.0 2.0 101 115
- 0.369333 1 2 cbr 1000 ------- 2 1.0 2.0 101 115
r 0.369467 1 2 cbr 1000 ------- 2 1.0 2.0 97 110
+ 0.372 1 2 cbr 1000 ------- 2 1.0 2.0 102 116
- 0.372 1 2 cbr 1000 ------- 2 1.0 2.0 102 116
r 0.372133 1 2 cbr 1000 ------- 2 1.0 2.0 98 112
+ 0.374667 1 2 cbr 1000 ------- 2 1.0 2.0 103 117
- 0.374667 1 2 cbr 1000 ------- 2 1.0 2.0 103 117
r 0.3748 1 2 cbr 1000 ------- 2 1.0 2.0 99 113
r 0.375787 2 1 ack 40 ------- 1 3.0 0.0 3 106
+ 0.375787 1 0 ack 40 ------- 1 3.0 0.0 3 106
- 0.375787 1 0 ack 40 ------- 1 3.0 0.0 3 106
+ 0.377333 1 2 cbr 1000 ------- 2 1.0 2.0 104 118
- 0.377333 1 2 cbr 1000 ------- 2 1.0 2.0 104 118
r 0.377419 2 1 ack 40 ------- 1 3.0 0.0 4 108
+ 0.377419 1 0 ack 40 ------- 1 3.0 0.0 4 108
- 0.377419 1 0 ack 40 ------- 1 3.0 0.0 4 108
r 0.377467 1 2 cbr 1000 ------- 2 1.0 2.0 100 114
r 0.378251 2 1 ack 40 ------- 1 3.0 0.0 5 109
+ 0.378251 1 0 ack 40 ------- 1 3.0 0.0 5 109
- 0.378251 1 0 ack 40 ------- 1 3.0 0.0 5 109
r 0.379083 2 1 ack 40 ------- 1 3.0 0.0 6 111
+ 0.379083 1 0 ack 40 ------- 1 3.0 0.0 6 111
- 0.379083 1 0 ack 40 ------- 1 3.0 0.0 6 111
+ 0.38 1 2 cbr 1000 ------- 2 1.0 2.0 105 119
- 0.38 1 2 cbr 1000 ------- 2 1.0 2.0 105 119
r 0.380133 1 2 cbr 1000 ------- 2 1.0 2.0 101 115
+ 0.382667 1 2 cbr 1000 ------- 2 1.0 2.0 106 120
- 0.382667 1 2 cbr 1000 ------- 2 1.0 2.0 106 120
r 0.3828 1 2 cbr 1000 ------- 2 1.0 2.0 102 116
+ 0.385333 1 2 cbr 1000 ------- 2 1.0 2.0 107 121
- 0.385333 1 2 cbr 1000 ------- 2 1.0 2.0 107 121
r 0.385467 1 2 cbr 1000 ------- 2 1.0 2.0 103 117
r 0.385819 1 0 ack 40 ------- 1 3.0 0.0 3 106
+ 0.385819 0 1 tcp 1040 ------- 1 0.0 3.0 7 122
- 0.385819 0 1 tcp 1040 ------- 1 0.0 3.0 7 122
+ 0.385819 0 1 tcp 1040 ------- 1 0.0 3.0 8 123
- 0.386651 0 1 tcp 1040 ------- 1 0.0 3.0 8 123
r 0.387451 1 0 ack 40 ------- 1 3.0 0.0 4 108
+ 0.387451 0 1 tcp 1040 ------- 1 0.0 3.0 9 124
+ 0.387451 0 1 tcp 1040 ------- 1 0.0 3.0 10 125
- 0.387483 0 1 tcp 1040 ------- 1 0.0 3.0 9 124
+ 0.388 1 2 cbr 1000 ------- 2 1.0 2.0 108 126
- 0.388 1 2 cbr 1000 ------- 2 1.0 2.0 108 126
r 0.388133 1 2 cbr 1000 ------- 2 1.0 2.0 104 118
r 0.388283 1 0 ack 40 ------- 1 3.0 0.0 5 109
+ 0.388283 0 1 tcp 1040 ------- 1 0.0 3.0 11 127
+ 0.388283 0 1 tcp 1040 ------- 1 0.0 3.0 12 128
- 0.388315 0 1 tcp 1040 ------- 1 0.0 3.0 10 125
r 0.389115 1 0 ack 40 ------- 1 3.0 0.0 6 111
+ 0.389115 0 1 tcp 1040 ------- 1 0.0 3.0 13 129
+ 0.389115 0 1 tcp 1040 ------- 1 0.0 3.0 14 130
- 0.389147 0 1 tcp 1040 ------- 1 0.0 3.0 11 127
- 0.389979 0 1 tcp 1040 ------- 1 0.0 3.0 12 128
+ 0.390667 1 2 cbr 1000 ------- 2 1.0 2.0 109 131
- 0.390667 1 2 cbr 1000 ------- 2 1.0 2.0 109 131
r 0.3908 1 2 cbr 1000 ------- 2 1.0 2.0 105 119
- 0.390811 0 1 tcp 1040 ------- 1 0.0 3.0 13 129
- 0.391643 0 1 tcp 1040 ------- 1 0.0 3.0 14 130
+ 0.393333 1 2 cbr 1000 ------- 2 1.0 2.0 110 132
- 0.393333 1 2 cbr 1000 ------- 2 1.0 2.0 110 132
r 0.393467 1 2 cbr 1000 ------- 2 1.0 2.0 106 120
+ 0.396 1 2 cbr 1000 ------- 2 1.0 2.0 111 133
- 0.396 1 2 cbr 1000 ------- 2 1.0 2.0 111 133
r 0.396133 1 2 cbr 1000 ------- 2 1.0 2.0 107 121
r 0.396651 0 1 tcp 1040 ------- 1 0.0 3.0 7 122
+ 0.396651 1 2 tcp 1040 ------- 1 0.0 3.0 7 122
- 0.3968 1 2 tcp 1040 ------- 1 0.0 3.0 7 122
r 0.397483 0 1 tcp 1040 ------- 1 0.0 3.0 8 123
+ 0.397483 1 2 tcp 1040 ------- 1 0.0 3.0 8 123
- 0.397632 1 2 tcp 1040 ------- 1 0.0 3.0 8 123
r 0.398315 0 1 tcp 1040 ------- 1 0.0 3.0 9 124
+ 0.398315 1 2 tcp 1040 ------- 1 0.0 3.0 9 124
- 0.398464 1 2 tcp 1040 ------- 1 0.0 3.0 9 124
+ 0.398667 1 2 cbr 1000 ------- 2 1.0 2.0 112 134
r 0.3988 1 2 cbr 1000 ------- 2 1.0 2.0 108 126
r 0.399147 0 1 tcp 1040 ------- 1 0.0 3.0 10 125
+ 0.399147 1 2 tcp 1040 ------- 1 0.0 3.0 10 125
- 0.399296 1 2 cbr 1000 ------- 2 1.0 2.0 112 134
r 0.399979 0 1 tcp 1040 ------- 1 0.0 3.0 11 127
+ 0.399979 1 2 tcp 1040 ------- 1 0.0 3.0 11 127
- 0.400096 1 2 tcp 1040 ------- 1 0.0 3.0 10 125
r 0.400811 0 1 tcp 1040 ------- 1 0.0 3.0 12 128
+ 0.400811 1 2 tcp 1040 ------- 1 0.0 3.0 12 128
- 0.400928 1 2 tcp 1040 ------- 1 0.0 3.0 11 127
+ 0.401333 1 2 cbr 1000 ------- 2 1.0 2.0 113 135
r 0.401467 1 2 cbr 1000 ------- 2 1.0 2.0 109 131
r 0.401643 0 1 tcp 1040 ------- 1 0.0 3.0 13 129
+ 0.401643 1 2 tcp 1040 ------- 1 0.0 3.0 13 129
- 0.40176 1 2 tcp 1040 ------- 1 0.0 3.0 12 128
r 0.402475 0 1 tcp 1040 ------- 1 0.0 3.0 14 130
+ 0.402475 1 2 tcp 1040 ------- 1 0.0 3.0 14 130
- 0.402592 1 2 cbr 1000 ------- 2 1.0 2.0 113 135
- 0.403392 1 2 tcp 1040 ------- 1 0.0 3.0 13 129
+ 0.404 1 2 cbr 1000 ------- 2 1.0 2.0 114 136
r 0.404133 1 2 cbr 1000 ------- 2 1.0 2.0 110 132
- 0.404224 1 2 tcp 1040 ------- 1 0.0 3.0 14 130
- 0.405056 1 2 cbr 1000 ------- 2 1.0 2.0 114 136
+ 0.406667 1 2 cbr 1000 ------- 2 1.0 2.0 115 137
- 0.406667 1 2 cbr 1000 ------- 2 1.0 2.0 115 137
r 0.4068 1 2 cbr 1000 ------- 2 1.0 2.0 111 133
r 0.407632 1 2 tcp 1040 ------- 1 0.0 3.0 7 122
+ 0.407632 2 3 tcp 1040 ------- 1 0.0 3.0 7 122
- 0.407632 2 3 tcp 1040 ------- 1 0.0 3.0 7 122
r 0.408464 1 2 tcp 1040 ------- 1 0.0 3.0 8 123
+ 0.408464 2 3 tcp 1040 ------- 1 0.0 3.0 8 123
- 0.408464 2 3 tcp 1040 ------- 1 0.0 3.0 8 123
r 0.409296 1 2 tcp 1040 ------- 1 0.0 3.0 9 124
+ 0.409296 2 3 tcp 1040 ------- 1 0.0 3.0 9 124
- 0.409296 2 3 tcp 1040 ------- 1 0.0 3.0 9 124
+ 0.409333 1 2 cbr 1000 ------- 2 1.0 2.0 116 138
- 0.409333 1 2 cbr 1000 ------- 2 1.0 2.0 116 138
r 0.410096 1 2 cbr 1000 ------- 2 1.0 2.0 112 134
r 0.410928 1 2 tcp 1040 ------- 1 0.0 3.0 10 125
+ 0.410928 2 3 tcp 1040 ------- 1 0.0 3.0 10 125
- 0.410928 2 3 tcp 1040 ------- 1 0.0 3.0 10 125
r 0.41176 1 2 tcp 1040 ------- 1 0.0 3.0 11 127
+ 0.41176 2 3 tcp 1040 ------- 1 0.0 3.0 11 127
- 0.41176 2 3 tcp 1040 ------- 1 0.0 3.0 11 127
+ 0.412 1 2 cbr 1000 ------- 2 1.0 2.0 117 139
- 0.412 1 2 cbr 1000 ------- 2 1.0 2.0 117 139
r 0.412592 1 2 tcp 1040 ------- 1 0.0 3.0 12 128
+ 0.412592 2 3 tcp 1040 ------- 1 0.0 3.0 12 128
- 0.412592 2 3 tcp 1040 ------- 1 0.0 3.0 12 128
r 0.413392 1 2 cbr 1000 ------- 2 1.0 2.0 113 135
r 0.414224 1 2 tcp 1040 ------- 1 0.0 3.0 13 129
+ 0.414224 2 3 tcp 1040 ------- 1 0.0 3.0 13 129
- 0.414224 2 3 tcp 1040 ------- 1 0.0 3.0 13 129
+ 0.414667 1 2 cbr 1000 ------- 2 1.0 2.0 118 140
- 0.414667 1 2 cbr 1000 ------- 2 1.0 2.0 118 140
r 0.415056 1 2 tcp 1040 ------- 1 0.0 3.0 14 130
+ 0.415056 2 3 tcp 1040 ------- 1 0.0 3.0 14 130
- 0.415056 2 3 tcp 1040 ------- 1 0.0 3.0 14 130
r 0.415856 1 2 cbr 1000 ------- 2 1.0 2.0 114 136
+ 0.417333 1 2 cbr 1000 ------- 2 1.0 2.0 119 141
- 0.417333 1 2 cbr 1000 ------- 2 1.0 2.0 119 141
r 0.417467 1 2 cbr 1000 ------- 2 1.0 2.0 115 137
r 0.418464 2 3 tcp 1040 ------- 1 0.0 3.0 7 122
+ 0.418464 3 2 ack 40 ------- 1 3.0 0.0 7 142
- 0.418464 3 2 ack 40 ------- 1 3.0 0.0 7 142
r 0.419296 2 3 tcp 1040 ------- 1 0.0 3.0 8 123
+ 0.419296 3 2 ack 40 ------- 1 3.0 0.0 8 143
- 0.419296 3 2 ack 40 ------- 1 3.0 0.0 8 143
+ 0.42 1 2 cbr 1000 ------- 2 1.0 2.0 120 144
- 0.42 1 2 cbr 1000 ------- 2 1.0 2.0 120 144
r 0.420128 2 3 tcp 1040 ------- 1 0.0 3.0 9 124
+ 0.420128 3 2 ack 40 ------- 1 3.0 0.0 9 145
- 0.420128 3 2 ack 40 ------- 1 3.0 0.0 9 145
r 0.420133 1 2 cbr 1000 ------- 2 1.0 2.0 116 138
r 0.42176 2 3 tcp 1040 ------- 1 0.0 3.0 10 125
+ 0.42176 3 2 ack 40 ------- 1 3.0 0.0 10 146
- 0.42176 3 2 ack 40 ------- 1 3.0 0.0 10 146
r 0.422592 2 3 tcp 1040 ------- 1 0.0 3.0 11 127
+ 0.422592 3 2 ack 40 ------- 1 3.0 0.0 11 147
- 0.422592 3 2 ack 40 ------- 1 3.0 0.0 11 147
+ 0.422667 1 2 cbr 1000 ------- 2 1.0 2.0 121 148
- 0.422667 1 2 cbr 1000 ------- 2 1.0 2.0 121 148
r 0.4228 1 2 cbr 1000 ------- 2 1.0 2.0 117 139
r 0.423424 2 3 tcp 1040 ------- 1 0.0 3.0 12 128
+ 0.423424 3 2 ack 40 ------- 1 3.0 0.0 12 149
- 0.423424 3 2 ack 40 ------- 1 3.0 0.0 12 149
r 0.425056 2 3 tcp 1040 ------- 1 0.0 3.0 13 129
+ 0.425056 3 2 ack 40 ------- 1 3.0 0.0 13 150
- 0.425056 3 2 ack 40 ------- 1 3.0 0.0 13 150
+ 0.425333 1 2 cbr 1000 ------- 2 1.0 2.0 122 151
- 0.425333 1 2 cbr 1000 ------- 2 1.0 2.0 122 151
r 0.425467 1 2 cbr 1000 ------- 2 1.0 2.0 118 140
r 0.425888 2 3 tcp 1040 ------- 1 0.0 3.0 14 130
+ 0.425888 3 2 ack 40 ------- 1 3.0 0.0 14 152
- 0.425888 3 2 ack 40 ------- 1 3.0 0.0 14 152
+ 0.428 1 2 cbr 1000 ------- 2 1.0 2.0 123 153
- 0.428 1 2 cbr 1000 ------- 2 1.0 2.0 123 153
r 0.428133 1 2 cbr 1000 ------- 2 1.0 2.0 119 141
r 0.428496 3 2 ack 40 ------- 1 3.0 0.0 7 142
+ 0.428496 2 1 ack 40 ------- 1 3.0 0.0 7 142
- 0.428496 2 1 ack 40 ------- 1 3.0 0.0 7 142
r 0.429328 3 2 ack 40 ------- 1 3.0 0.0 8 143
+ 0.429328 2 1 ack 40 ------- 1 3.0 0.0 8 143
- 0.429328 2 1 ack 40 ------- 1 3.0 0.0 8 143
r 0.43016 3 2 ack 40 ------- 1 3.0 0.0 9 145
+ 0.43016 2 1 ack 40 ------- 1 3.0 0.0 9 145
- 0.43016 2 1 ack 40 ------- 1 3.0 0.0 9 145
+ 0.430667 1 2 cbr 1000 ------- 2 1.0 2.0 124 154
- 0.430667 1 2 cbr 1000 ------- 2 1.0 2.0 124 154
r 0.4308 1 2 cbr 1000 ------- 2 1.0 2.0 120 144
r 0.431792 3 2 ack 40 ------- 1 3.0 0.0 10 146
+ 0.431792 2 1 ack 40 ------- 1 3.0 0.0 10 146
- 0.431792 2 1 ack 40 ------- 1 3.0 0.0 10 146
r 0.432624 3 2 ack 40 ------- 1 3.0 0.0 11 147
+ 0.432624 2 1 ack 40 ------- 1 3.0 0.0 11 147
- 0.432624 2 1 ack 40 ------- 1 3.0 0.0 11 147
+ 0.433333 1 2 cbr 1000 ------- 2 1.0 2.0 125 155
- 0.433333 1 2 cbr 1000 ------- 2 1.0 2.0 125 155
r 0.433456 3 2 ack 40 ------- 1 3.0 0.0 12 149
+ 0.433456 2 1 ack 40 ------- 1 3.0 0.0 12 149
- 0.433456 2 1 ack 40 ------- 1 3.0 0.0 12 149
r 0.433467 1 2 cbr 1000 ------- 2 1.0 2.0 121 148
r 0.435088 3 2 ack 40 ------- 1 3.0 0.0 13 150
+ 0.435088 2 1 ack 40 ------- 1 3.0 0.0 13 150
- 0.435088 2 1 ack 40 ------- 1 3.0 0.0 13 150
r 0.43592 3 2 ack 40 ------- 1 3.0 0.0 14 152
+ 0.43592 2 1 ack 40 ------- 1 3.0 0.0 14 152
- 0.43592 2 1 ack 40 ------- 1 3.0 0.0 14 152
+ 0.436 1 2 cbr 1000 ------- 2 1.0 2.0 126 156
- 0.436 1 2 cbr 1000 ------- 2 1.0 2.0 126 156
r 0.436133 1 2 cbr 1000 ------- 2 1.0 2.0 122 151
r 0.438528 2 1 ack 40 ------- 1 3.0 0.0 7 142
+ 0.438528 1 0 ack 40 ------- 1 3.0 0.0 7 142
- 0.438528 1 0 ack 40 ------- 1 3.0 0.0 7 142
+ 0.438667 1 2 cbr 1000 ------- 2 1.0 2.0 127 157
- 0.438667 1 2 cbr 1000 ------- 2 1.0 2.0 127 157
r 0.4388 1 2 cbr 1000 ------- 2 1.0 2.0 123 153
r 0.43936 2 1 ack 40 ------- 1 3.0 0.0 8 143
+ 0.43936 1 0 ack 40 ------- 1 3.0 0.0 8 143
- 0.43936 1 0 ack 40 ------- 1 3.0 0.0 8 143
r 0.440192 2 1 ack 40 ------- 1 3.0 0.0 9 145
+ 0.440192 1 0 ack 40 ------- 1 3.0 0.0 9 145
- 0.440192 1 0 ack 40 ------- 1 3.0 0.0 9 145
+ 0.441333 1 2 cbr 1000 ------- 2 1.0 2.0 128 158
- 0.441333 1 2 cbr 1000 ------- 2 1.0 2.0 128 158
r 0.441467 1 2 cbr 1000 ------- 2 1.0 2.0 124 154
r 0.441824 2 1 ack 40 ------- 1 3.0 0.0 10 146
+ 0.441824 1 0 ack 40 ------- 1 3.0 0.0 10 146
- 0.441824 1 0 ack 40 ------- 1 3.0 0.0 10 146
r 0.442656 2 1 ack 40 ------- 1 3.0 0.0 11 147
+ 0.442656 1 0 ack 40 ------- 1 3.0 0.0 11 147