+ 0.1 1 2 cbr 1000 ------- 2 1.0 2.0 0 0
- 0.1 1 2 cbr 1000 ------- 2 1.0 2.0 0 0
+ 0.101333 1 2 cbr 1000 ------- 2 1.0 2.0 1 1
- 0.101333 1 2 cbr 1000 ------- 2 1.0 2.0 1 1
+ 0.102667 1 2 cbr 1000 ------- 2 1.0 2.0 2 2
- 0.102667 1 2 cbr 1000 ------- 2 1.0 2.0 2 2
+ 0.104 1 2 cbr 1000 ------- 2 1.0 2.0 3 3
- 0.104 1 2 cbr 1000 ------- 2 1.0 2.0 3 3
+ 0.105333 1 2 cbr 1000 ------- 2 1.0 2.0 4 4
- 0.105333 1 2 cbr 1000 ------- 2 1.0 2.0 4 4
+ 0.106667 1 2 cbr 1000 ------- 2 1.0 2.0 5 5
- 0.106667 1 2 cbr 1000 ------- 2 1.0 2.0 5 5
+ 0.108 1 2 cbr 1000 ------- 2 1.0 2.0 6 6
- 0.108 1 2 cbr 1000 ------- 2 1.0 2.0 6 6
+ 0.109333 1 2 cbr 1000 ------- 2 1.0 2.0 7 7
- 0.109333 1 2 cbr 1000 ------- 2 1.0 2.0 7 7
+ 0.110667 1 2 cbr 1000 ------- 2 1.0 2.0 8 8
- 0.110667 1 2 cbr 1000 ------- 2 1.0 2.0 8 8
r 0.1108 1 2 cbr 1000 ------- 2 1.0 2.0 0 0
+ 0.112 1 2 cbr 1000 ------- 2 1.0 2.0 9 9
- 0.112 1 2 cbr 1000 ------- 2 1.0 2.0 9 9
r 0.112133 1 2 cbr 1000 ------- 2 1.0 2.0 1 1
+ 0.113333 1 2 cbr 1000 ------- 2 1.0 2.0 10 10
- 0.113333 1 2 cbr 1000 ------- 2 1.0 2.0 10 10
r 0.113467 1 2 cbr 1000 ------- 2 1.0 2.0 2 2
+ 0.114667 1 2 cbr 1000 ------- 2 1.0 2.0 11 11
- 0.114667 1 2 cbr 1000 ------- 2 1.0 2.0 11 11
r 0.1148 1 2 cbr 1000 ------- 2 1.0 2.0 3 3
+ 0.116 1 2 cbr 1000 ------- 2 1.0 2.0 12 12
- 0.116 1 2 cbr 1000 ------- 2 1.0 2.0 12 12
r 0.116133 1 2 cbr 1000 ------- 2 1.0 2.0 4 4
+ 0.117333 1 2 cbr 1000 ------- 2 1.0 2.0 13 13
- 0.117333 1 2 cbr 1000 ------- 2 1.0 2.0 13 13
r 0.117467 1 2 cbr 1000 ------- 2 1.0 2.0 5 5
+ 0.118667 1 2 cbr 1000 ------- 2 1.0 2.0 14 14
- 0.118667 1 2 cbr 1000 ------- 2 1.0 2.0 14 14
r 0.1188 1 2 cbr 1000 ------- 2 1.0 2.0 6 6
+ 0.12 1 2 cbr 1000 ------- 2 1.0 2.0 15 15
- 0.12 1 2 cbr 1000 ------- 2 1.0 2.0 15 15
r 0.120133 1 2 cbr 1000 ------- 2 1.0 2.0 7 7
+ 0.121333 1 2 cbr 1000 ------- 2 1.0 2.0 16 16
- 0.121333 1 2 cbr 1000 ------- 2 1.0 2.0 16 16
r 0.121467 1 2 cbr 1000 ------- 2 1.0 2.0 8 8
+ 0.122667 1 2 cbr 1000 ------- 2 1.0 2.0 17 17
- 0.122667 1 2 cbr 1000 ------- 2 1.0 2.0 17 17
r 0.1228 1 2 cbr 1000 ------- 2 1.0 2.0 9 9
+ 0.124 1 2 cbr 1000 ------- 2 1.0 2.0 18 18
- 0.124 1 2 cbr 1000 ------- 2 1.0 2.0 18 18
r 0.124133 1 2 cbr 1000 ------- 2 1.0 2.0 10 10
+ 0.125333 1 2 cbr 1000 ------- 2 1.0 2.0 19 19
- 0.125333 1 2 cbr 1000 ------- 2 1.0 2.0 19 19
r 0.125467 1 2 cbr 1000 ------- 2 1.0 2.0 11 11
+ 0.126667 1 2 cbr 1000 ------- 2 1.0 2.0 20 20
- 0.126667 1 2 cbr 1000 ------- 2 1.0 2.0 20 20
r 0.1268 1 2 cbr 1000 ------- 2 1.0 2.0 12 12
+ 0.128 1 2 cbr 1000 ------- 2 1.0 2.0 21 21
- 0.128 1 2 cbr 1000 ------- 2 1.0 2.0 21 21
r 0.128133 1 2 cbr 1000 ------- 2 1.0 2.0 13 13
+ 0.129333 1 2 cbr 1000 ------- 2 1.0 2.0 22 22
- 0.129333 1 2 cbr 1000 ------- 2 1.0 2.0 22 22
r 0.129467 1 2 cbr 1000 ------- 2 1.0 2.0 14 14
+ 0.130667 1 2 cbr 1000 ------- 2 1.0 2.0 23 23
- 0.130667 1 2 cbr 1000 ------- 2 1.0 2.0 23 23
r 0.1308 1 2 cbr 1000 ------- 2 1.0 2.0 15 15
+ 0.132 1 2 cbr 1000 ------- 2 1.0 2.0 24 24
- 0.132 1 2 cbr 1000 ------- 2 1.0 2.0 24 24
r 0.132133 1 2 cbr 1000 ------- 2 1.0 2.0 16 16
+ 0.133333 1 2 cbr 1000 ------- 2 1.0 2.0 25 25
- 0.133333 1 2 cbr 1000 ------- 2 1.0 2.0 25 25
r 0.133467 1 2 cbr 1000 ------- 2 1.0 2.0 17 17
+ 0.134667 1 2 cbr 1000 ------- 2 1.0 2.0 26 26
- 0.134667 1 2 cbr 1000 ------- 2 1.0 2.0 26 26
r 0.1348 1 2 cbr 1000 ------- 2 1.0 2.0 18 18
+ 0.136 1 2 cbr 1000 ------- 2 1.0 2.0 27 27
- 0.136 1 2 cbr 1000 ------- 2 1.0 2.0 27 27
r 0.136133 1 2 cbr 1000 ------- 2 1.0 2.0 19 19
+ 0.137333 1 2 cbr 1000 ------- 2 1.0 2.0 28 28
- 0.137333 1 2 cbr 1000 ------- 2 1.0 2.0 28 28
r 0.137467 1 2 cbr 1000 ------- 2 1.0 2.0 20 20
+ 0.138667 1 2 cbr 1000 ------- 2 1.0 2.0 29 29
- 0.138667 1 2 cbr 1000 ------- 2 1.0 2.0 29 29
r 0.1388 1 2 cbr 1000 ------- 2 1.0 2.0 21 21
+ 0.14 1 2 cbr 1000 ------- 2 1.0 2.0 30 30
- 0.14 1 2 cbr 1000 ------- 2 1.0 2.0 30 30
r 0.140133 1 2 cbr 1000 ------- 2 1.0 2.0 22 22
+ 0.141333 1 2 cbr 1000 ------- 2 1.0 2.0 31 31
- 0.141333 1 2 cbr 1000 ------- 2 1.0 2.0 31 31
r 0.141467 1 2 cbr 1000 ------- 2 1.0 2.0 23 23
+ 0.142667 1 2 cbr 1000 ------- 2 1.0 2.0 32 32
- 0.142667 1 2 cbr 1000 ------- 2 1.0 2.0 32 32
r 0.1428 1 2 cbr 1000 ------- 2 1.0 2.0 24 24
+ 0.144 1 2 cbr 1000 ------- 2 1.0 2.0 33 33
- 0.144 1 2 cbr 1000 ------- 2 1.0 2.0 33 33
r 0.144133 1 2 cbr 1000 ------- 2 1.0 2.0 25 25
+ 0.145333 1 2 cbr 1000 ------- 2 1.0 2.0 34 34
- 0.145333 1 2 cbr 1000 ------- 2 1.0 2.0 34 34
r 0.145467 1 2 cbr 1000 ------- 2 1.0 2.0 26 26
+ 0.146667 1 2 cbr 1000 ------- 2 1.0 2.0 35 35
- 0.146667 1 2 cbr 1000 ------- 2 1.0 2.0 35 35
r 0.1468 1 2 cbr 1000 ------- 2 1.0 2.0 27 27
+ 0.148 1 2 cbr 1000 ------- 2 1.0 2.0 36 36
- 0.148 1 2 cbr 1000 ------- 2 1.0 2.0 36 36
r 0.148133 1 2 cbr 1000 ------- 2 1.0 2.0 28 28
+ 0.149333 1 2 cbr 1000 ------- 2 1.0 2.0 37 37
- 0.149333 1 2 cbr 1000 ------- 2 1.0 2.0 37 37
r 0.149467 1 2 cbr 1000 ------- 2 1.0 2.0 29 29
+ 0.150667 1 2 cbr 1000 ------- 2 1.0 2.0 38 38
- 0.150667 1 2 cbr 1000 ------- 2 1.0 2.0 38 38
r 0.1508 1 2 cbr 1000 ------- 2 1.0 2.0 30 30
+ 0.152 1 2 cbr 1000 ------- 2 1.0 2.0 39 39
- 0.152 1 2 cbr 1000 ------- 2 1.0 2.0 39 39
r 0.152133 1 2 cbr 1000 ------- 2 1.0 2.0 31 31
+ 0.153333 1 2 cbr 1000 ------- 2 1.0 2.0 40 40
- 0.153333 1 2 cbr 1000 ------- 2 1.0 2.0 40 40
r 0.153467 1 2 cbr 1000 ------- 2 1.0 2.0 32 32
+ 0.154667 1 2 cbr 1000 ------- 2 1.0 2.0 41 41
- 0.154667 1 2 cbr 1000 ------- 2 1.0 2.0 41 41
r 0.1548 1 2 cbr 1000 ------- 2 1.0 2.0 33 33
+ 0.156 1 2 cbr 1000 ------- 2 1.0 2.0 42 42
- 0.156 1 2 cbr 1000 ------- 2 1.0 2.0 42 42
r 0.156133 1 2 cbr 1000 ------- 2 1.0 2.0 34 34
+ 0.157333 1 2 cbr 1000 ------- 2 1.0 2.0 43 43
- 0.157333 1 2 cbr 1000 ------- 2 1.0 2.0 43 43
r 0.157467 1 2 cbr 1000 ------- 2 1.0 2.0 35 35
+ 0.158667 1 2 cbr 1000 ------- 2 1.0 2.0 44 44
- 0.158667 1 2 cbr 1000 ------- 2 1.0 2.0 44 44
r 0.1588 1 2 cbr 1000 ------- 2 1.0 2.0 36 36
+ 0.16 1 2 cbr 1000 ------- 2 1.0 2.0 45 45
- 0.16 1 2 cbr 1000 ------- 2 1.0 2.0 45 45
r 0.160133 1 2 cbr 1000 ------- 2 1.0 2.0 37 37
+ 0.161333 1 2 cbr 1000 ------- 2 1.0 2.0 46 46
- 0.161333 1 2 cbr 1000 ------- 2 1.0 2.0 46 46
r 0.161467 1 2 cbr 1000 ------- 2 1.0 2.0 38 38
+ 0.162667 1 2 cbr 1000 ------- 2 1.0 2.0 47 47
- 0.162667 1 2 cbr 1000 ------- 2 1.0 2.0 47 47
r 0.1628 1 2 cbr 1000 ------- 2 1.0 2.0 39 39
+ 0.164 1 2 cbr 1000 ------- 2 1.0 2.0 48 48
- 0.164 1 2 cbr 1000 ------- 2 1.0 2.0 48 48
r 0.164133 1 2 cbr 1000 ------- 2 1.0 2.0 40 40
+ 0.165333 1 2 cbr 1000 ------- 2 1.0 2.0 49 49
- 0.165333 1 2 cbr 1000 ------- 2 1.0 2.0 49 49
r 0.165467 1 2 cbr 1000 ------- 2 1.0 2.0 41 41
+ 0.166667 1 2 cbr 1000 ------- 2 1.0 2.0 50 50
- 0.166667 1 2 cbr 1000 ------- 2 1.0 2.0 50 50
r 0.1668 1 2 cbr 1000 ------- 2 1.0 2.0 42 42
+ 0.168 1 2 cbr 1000 ------- 2 1.0 2.0 51 51
- 0.168 1 2 cbr 1000 ------- 2 1.0 2.0 51 51
r 0.168133 1 2 cbr 1000 ------- 2 1.0 2.0 43 43
+ 0.169333 1 2 cbr 1000 ------- 2 1.0 2.0 52 52
- 0.169333 1 2 cbr 1000 ------- 2 1.0 2.0 52 52
r 0.169467 1 2 cbr 1000 ------- 2 1.0 2.0 44 44
+ 0.170667 1 2 cbr 1000 ------- 2 1.0 2.0 53 53
- 0.170667 1 2 cbr 1000 ------- 2 1.0 2.0 53 53
r 0.1708 1 2 cbr 1000 ------- 2 1.0 2.0 45 45
+ 0.172 1 2 cbr 1000 ------- 2 1.0 2.0 54 54
- 0.172 1 2 cbr 1000 ------- 2 1.0 2.0 54 54
r 0.172133 1 2 cbr 1000 ------- 2 1.0 2.0 46 46
+ 0.173333 1 2 cbr 1000 ------- 2 1.0 2.0 55 55
- 0.173333 1 2 cbr 1000 ------- 2 1.0 2.0 55 55
r 0.173467 1 2 cbr 1000 ------- 2 1.0 2.0 47 47
+ 0.174667 1 2 cbr 1000 ------- 2 1.0 2.0 56 56
- 0.174667 1 2 cbr 1000 ------- 2 1.0 2.0 56 56
r 0.1748 1 2 cbr 1000 ------- 2 1.0 2.0 48 48
+ 0.176 1 2 cbr 1000 ------- 2 1.0 2.0 57 57
- 0.176 1 2 cbr 1000 ------- 2 1.0 2.0 57 57
r 0.176133 1 2 cbr 1000 ------- 2 1.0 2.0 49 49
+ 0.177333 1 2 cbr 1000 ------- 2 1.0 2.0 58 58
- 0.177333 1 2 cbr 1000 ------- 2 1.0 2.0 58 58
r 0.177467 1 2 cbr 1000 ------- 2 1.0 2.0 50 50
+ 0.178667 1 2 cbr 1000 ------- 2 1.0 2.0 59 59
- 0.178667 1 2 cbr 1000 ------- 2 1.0 2.0 59 59
r 0.1788 1 2 cbr 1000 ------- 2 1.0 2.0 51 51
+ 0.18 1 2 cbr 1000 ------- 2 1.0 2.0 60 60
- 0.18 1 2 cbr 1000 ------- 2 1.0 2.0 60 60
r 0.180133 1 2 cbr 1000 ------- 2 1.0 2.0 52 52
+ 0.181333 1 2 cbr 1000 ------- 2 1.0 2.0 61 61
- 0.181333 1 2 cbr 1000 ------- 2 1.0 2.0 61 61
r 0.181467 1 2 cbr 1000 ------- 2 1.0 2.0 53 53
+ 0.182667 1 2 cbr 1000 ------- 2 1.0 2.0 62 62
- 0.182667 1 2 cbr 1000 ------- 2 1.0 2.0 62 62
r 0.1828 1 2 cbr 1000 ------- 2 1.0 2.0 54 54
+ 0.184 1 2 cbr 1000 ------- 2 1.0 2.0 63 63
- 0.184 1 2 cbr 1000 ------- 2 1.0 2.0 63 63
r 0.184133 1 2 cbr 1000 ------- 2 1.0 2.0 55 55
+ 0.185333 1 2 cbr 1000 ------- 2 1.0 2.0 64 64
- 0.185333 1 2 cbr 1000 ------- 2 1.0 2.0 64 64
r 0.185467 1 2 cbr 1000 ------- 2 1.0 2.0 56 56
+ 0.186667 1 2 cbr 1000 ------- 2 1.0 2.0 65 65
- 0.186667 1 2 cbr 1000 ------- 2 1.0 2.0 65 65
r 0.1868 1 2 cbr 1000 ------- 2 1.0 2.0 57 57
+ 0.188 1 2 cbr 1000 ------- 2 1.0 2.0 66 66
- 0.188 1 2 cbr 1000 ------- 2 1.0 2.0 66 66
r 0.188133 1 2 cbr 1000 ------- 2 1.0 2.0 58 58
+ 0.189333 1 2 cbr 1000 ------- 2 1.0 2.0 67 67
- 0.189333 1 2 cbr 1000 ------- 2 1.0 2.0 67 67
r 0.189467 1 2 cbr 1000 ------- 2 1.0 2.0 59 59
+ 0.190667 1 2 cbr 1000 ------- 2 1.0 2.0 68 68
- 0.190667 1 2 cbr 1000 ------- 2 1.0 2.0 68 68
r 0.1908 1 2 cbr 1000 ------- 2 1.0 2.0 60 60
+ 0.192 1 2 cbr 1000 ------- 2 1.0 2.0 69 69
- 0.192 1 2 cbr 1000 ------- 2 1.0 2.0 69 69
r 0.192133 1 2 cbr 1000 ------- 2 1.0 2.0 61 61
+ 0.193333 1 2 cbr 1000 ------- 2 1.0 2.0 70 70
- 0.193333 1 2 cbr 1000 ------- 2 1.0 2.0 70 70
r 0.193467 1 2 cbr 1000 ------- 2 1.0 2.0 62 62
+ 0.194667 1 2 cbr 1000 ------- 2 1.0 2.0 71 71
- 0.194667 1 2 cbr 1000 ------- 2 1.0 2.0 71 71
r 0.1948 1 2 cbr 1000 ------- 2 1.0 2.0 63 63
+ 0.196 1 2 cbr 1000 ------- 2 1.0 2.0 72 72
- 0.196 1 2 cbr 1000 ------- 2 1.0 2.0 72 72
r 0.196133 1 2 cbr 1000 ------- 2 1.0 2.0 64 64
+ 0.197333 1 2 cbr 1000 ------- 2 1.0 2.0 73 73
- 0.197333 1 2 cbr 1000 ------- 2 1.0 2.0 73 73
r 0.197467 1 2 cbr 1000 ------- 2 1.0 2.0 65 65
+ 0.198667 1 2 cbr 1000 ------- 2 1.0 2.0 74 74
- 0.198667 1 2 cbr 1000 ------- 2 1.0 2.0 74 74
r 0.1988 1 2 cbr 1000 ------- 2 1.0 2.0 66 66
+ 0.2 1 2 cbr 1000 ------- 2 1.0 2.0 75 75
- 0.2 1 2 cbr 1000 ------- 2 1.0 2.0 75 75
+ 0.2 0 1 tcp 1000 ------- 1 0.0 3.0 0 76
- 0.2 0 1 tcp 1000 ------- 1 0.0 3.0 0 76
r 0.200133 1 2 cbr 1000 ------- 2 1.0 2.0 67 67
+ 0.201333 1 2 cbr 1000 ------- 2 1.0 2.0 76 77
- 0.201333 1 2 cbr 1000 ------- 2 1.0 2.0 76 77
r 0.201467 1 2 cbr 1000 ------- 2 1.0 2.0 68 68
+ 0.202667 1 2 cbr 1000 ------- 2 1.0 2.0 77 78
- 0.202667 1 2 cbr 1000 ------- 2 1.0 2.0 77 78
r 0.2028 1 2 cbr 1000 ------- 2 1.0 2.0 69 69
+ 0.204 1 2 cbr 1000 ------- 2 1.0 2.0 78 79
- 0.204 1 2 cbr 1000 ------- 2 1.0 2.0 78 79
r 0.204133 1 2 cbr 1000 ------- 2 1.0 2.0 70 70
+ 0.205333 1 2 cbr 1000 ------- 2 1.0 2.0 79 80
- 0.205333 1 2 cbr 1000 ------- 2 1.0 2.0 79 80
r 0.205467 1 2 cbr 1000 ------- 2 1.0 2.0 71 71
+ 0.206667 1 2 cbr 1000 ------- 2 1.0 2.0 80 81
- 0.206667 1 2 cbr 1000 ------- 2 1.0 2.0 80 81
r 0.2068 1 2 cbr 1000 ------- 2 1.0 2.0 72 72
+ 0.208 1 2 cbr 1000 ------- 2 1.0 2.0 81 82
- 0.208 1 2 cbr 1000 ------- 2 1.0 2.0 81 82
r 0.208133 1 2 cbr 1000 ------- 2 1.0 2.0 73 73
+ 0.209333 1 2 cbr 1000 ------- 2 1.0 2.0 82 83
- 0.209333 1 2 cbr 1000 ------- 2 1.0 2.0 82 83
r 0.209467 1 2 cbr 1000 ------- 2 1.0 2.0 74 74
+ 0.210667 1 2 cbr 1000 ------- 2 1.0 2.0 83 84
- 0.210667 1 2 cbr 1000 ------- 2 1.0 2.0 83 84
r 0.2108 1 2 cbr 1000 ------- 2 1.0 2.0 75 75
r 0.2108 0 1 tcp 1000 ------- 1 0.0 3.0 0 76
+ 0.2108 1 2 tcp 1000 ------- 1 0.0 3.0 0 76
- 0.211467 1 2 tcp 1000 ------- 1 0.0 3.0 0 76
+ 0.212 1 2 cbr 1000 ------- 2 1.0 2.0 84 85
r 0.212133 1 2 cbr 1000 ------- 2 1.0 2.0 76 77
- 0.212267 1 2 cbr 1000 ------- 2 1.0 2.0 84 85
+ 0.213333 1 2 cbr 1000 ------- 2 1.0 2.0 85 86
- 0.213333 1 2 cbr 1000 ------- 2 1.0 2.0 85 86
r 0.213467 1 2 cbr 1000 ------- 2 1.0 2.0 77 78
+ 0.214667 1 2 cbr 1000 ------- 2 1.0 2.0 86 87
- 0.214667 1 2 cbr 1000 ------- 2 1.0 2.0 86 87
r 0.2148 1 2 cbr 1000 ------- 2 1.0 2.0 78 79
+ 0.216 1 2 cbr 1000 ------- 2 1.0 2.0 87 88
- 0.216 1 2 cbr 1000 ------- 2 1.0 2.0 87 88
r 0.216133 1 2 cbr 1000 ------- 2 1.0 2.0 79 80
+ 0.217333 1 2 cbr 1000 ------- 2 1.0 2.0 88 89
- 0.217333 1 2 cbr 1000 ------- 2 1.0 2.0 88 89
r 0.217467 1 2 cbr 1000 ------- 2 1.0 2.0 80 81
+ 0.218667 1 2 cbr 1000 ------- 2 1.0 2.0 89 90
- 0.218667 1 2 cbr 1000 ------- 2 1.0 2.0 89 90
r 0.2188 1 2 cbr 1000 ------- 2 1.0 2.0 81 82
+ 0.22 1 2 cbr 1000 ------- 2 1.0 2.0 90 91
- 0.22 1 2 cbr 1000 ------- 2 1.0 2.0 90 91
r 0.220133 1 2 cbr 1000 ------- 2 1.0 2.0 82 83
+ 0.221333 1 2 cbr 1000 ------- 2 1.0 2.0 91 92
- 0.221333 1 2 cbr 1000 ------- 2 1.0 2.0 91 92
r 0.221467 1 2 cbr 1000 ------- 2 1.0 2.0 83 84
r 0.222267 1 2 tcp 1000 ------- 1 0.0 3.0 0 76
+ 0.222267 2 3 tcp 1000 ------- 1 0.0 3.0 0 76
- 0.222267 2 3 tcp 1000 ------- 1 0.0 3.0 0 76
+ 0.222667 1 2 cbr 1000 ------- 2 1.0 2.0 92 93
- 0.222667 1 2 cbr 1000 ------- 2 1.0 2.0 92 93
r 0.223067 1 2 cbr 1000 ------- 2 1.0 2.0 84 85
+ 0.224 1 2 cbr 1000 ------- 2 1.0 2.0 93 94
- 0.224 1 2 cbr 1000 ------- 2 1.0 2.0 93 94
r 0.224133 1 2 cbr 1000 ------- 2 1.0 2.0 85 86
+ 0.225333 1 2 cbr 1000 ------- 2 1.0 2.0 94 95
- 0.225333 1 2 cbr 1000 ------- 2 1.0 2.0 94 95
r 0.225467 1 2 cbr 1000 ------- 2 1.0 2.0 86 87
+ 0.226667 1 2 cbr 1000 ------- 2 1.0 2.0 95 96
- 0.226667 1 2 cbr 1000 ------- 2 1.0 2.0 95 96
r 0.2268 1 2 cbr 1000 ------- 2 1.0 2.0 87 88
+ 0.228 1 2 cbr 1000 ------- 2 1.0 2.0 96 97
- 0.228 1 2 cbr 1000 ------- 2 1.0 2.0 96 97
r 0.228133 1 2 cbr 1000 ------- 2 1.0 2.0 88 89
+ 0.229333 1 2 cbr 1000 ------- 2 1.0 2.0 97 98
- 0.229333 1 2 cbr 1000 ------- 2 1.0 2.0 97 98
r 0.229467 1 2 cbr 1000 ------- 2 1.0 2.0 89 90
+ 0.230667 1 2 cbr 1000 ------- 2 1.0 2.0 98 99
- 0.230667 1 2 cbr 1000 ------- 2 1.0 2.0 98 99
r 0.2308 1 2 cbr 1000 ------- 2 1.0 2.0 90 91
+ 0.232 1 2 cbr 1000 ------- 2 1.0 2.0 99 100
- 0.232 1 2 cbr 1000 ------- 2 1.0 2.0 99 100
r 0.232133 1 2 cbr 1000 ------- 2 1.0 2.0 91 92
r 0.233067 2 3 tcp 1000 ------- 1 0.0 3.0 0 76
+ 0.233067 3 2 ack 40 ------- 1 3.0 0.0 0 101
- 0.233067 3 2 ack 40 ------- 1 3.0 0.0 0 101
+ 0.233333 1 2 cbr 1000 ------- 2 1.0 2.0 100 102
- 0.233333 1 2 cbr 1000 ------- 2 1.0 2.0 100 102
r 0.233467 1 2 cbr 1000 ------- 2 1.0 2.0 92 93
+ 0.234667 1 2 cbr 1000 ------- 2 1.0 2.0 101 103
- 0.234667 1 2 cbr 1000 ------- 2 1.0 2.0 101 103
r 0.2348 1 2 cbr 1000 ------- 2 1.0 2.0 93 94
+ 0.236 1 2 cbr 1000 ------- 2 1.0 2.0 102 104
- 0.236 1 2 cbr 1000 ------- 2 1.0 2.0 102 104
r 0.236133 1 2 cbr 1000 ------- 2 1.0 2.0 94 95
+ 0.237333 1 2 cbr 1000 ------- 2 1.0 2.0 103 105
- 0.237333 1 2 cbr 1000 ------- 2 1.0 2.0 103 105
r 0.237467 1 2 cbr 1000 ------- 2 1.0 2.0 95 96
+ 0.238667 1 2 cbr 1000 ------- 2 1.0 2.0 104 106
- 0.238667 1 2 cbr 1000 ------- 2 1.0 2.0 104 106
r 0.2388 1 2 cbr 1000 ------- 2 1.0 2.0 96 97
+ 0.24 1 2 cbr 1000 ------- 2 1.0 2.0 105 107
- 0.24 1 2 cbr 1000 ------- 2 1.0 2.0 105 107
r 0.240133 1 2 cbr 1000 ------- 2 1.0 2.0 97 98
+ 0.241333 1 2 cbr 1000 ------- 2 1.0 2.0 106 108
- 0.241333 1 2 cbr 1000 ------- 2 1.0 2.0 106 108
r 0.241467 1 2 cbr 1000 ------- 2 1.0 2.0 98 99
+ 0.242667 1 2 cbr 1000 ------- 2 1.0 2.0 107 109
- 0.242667 1 2 cbr 1000 ------- 2 1.0 2.0 107 109
r 0.2428 1 2 cbr 1000 ------- 2 1.0 2.0 99 100
r 0.243099 3 2 ack 40 ------- 1 3.0 0.0 0 101
+ 0.243099 2 1 ack 40 ------- 1 3.0 0.0 0 101
- 0.243099 2 1 ack 40 ------- 1 3.0 0.0 0 101
+ 0.244 1 2 cbr 1000 ------- 2 1.0 2.0 108 110
- 0.244 1 2 cbr 1000 ------- 2 1.0 2.0 108 110
r 0.244133 1 2 cbr 1000 ------- 2 1.0 2.0 100 102
+ 0.245333 1 2 cbr 1000 ------- 2 1.0 2.0 109 111
- 0.245333 1 2 cbr 1000 ------- 2 1.0 2.0 109 111
r 0.245467 1 2 cbr 1000 ------- 2 1.0 2.0 101 103
+ 0.246667 1 2 cbr 1000 ------- 2 1.0 2.0 110 112
- 0.246667 1 2 cbr 1000 ------- 2 1.0 2.0 110 112
r 0.2468 1 2 cbr 1000 ------- 2 1.0 2.0 102 104
+ 0.248 1 2 cbr 1000 ------- 2 1.0 2.0 111 113
- 0.248 1 2 cbr 1000 ------- 2 1.0 2.0 111 113
r 0.248133 1 2 cbr 1000 ------- 2 1.0 2.0 103 105
+ 0.249333 1 2 cbr 1000 ------- 2 1.0 2.0 112 114
- 0.249333 1 2 cbr 1000 ------- 2 1.0 2.0 112 114
r 0.249467 1 2 cbr 1000 ------- 2 1.0 2.0 104 106
+ 0.250667 1 2 cbr 1000 ------- 2 1.0 2.0 113 115
- 0.250667 1 2 cbr 1000 ------- 2 1.0 2.0 113 115
r 0.2508 1 2 cbr 1000 ------- 2 1.0 2.0 105 107
+ 0.252 1 2 cbr 1000 ------- 2 1.0 2.0 114 116
- 0.252 1 2 cbr 1000 ------- 2 1.0 2.0 114 116
r 0.252133 1 2 cbr 1000 ------- 2 1.0 2.0 106 108
r 0.253131 2 1 ack 40 ------- 1 3.0 0.0 0 101
+ 0.253131 1 0 ack 40 ------- 1 3.0 0.0 0 101
- 0.253131 1 0 ack 40 ------- 1 3.0 0.0 0 101
+ 0.253333 1 2 cbr 1000 ------- 2 1.0 2.0 115 117
- 0.253333 1 2 cbr 1000 ------- 2 1.0 2.0 115 117
r 0.253467 1 2 cbr 1000 ------- 2 1.0 2.0 107 109
+ 0.254667 1 2 cbr 1000 ------- 2 1.0 2.0 116 118
- 0.254667 1 2 cbr 1000 ------- 2 1.0 2.0 116 118
r 0.2548 1 2 cbr 1000 ------- 2 1.0 2.0 108 110
+ 0.256 1 2 cbr 1000 ------- 2 1.0 2.0 117 119
- 0.256 1 2 cbr 1000 ------- 2 1.0 2.0 117 119
r 0.256133 1 2 cbr 1000 ------- 2 1.0 2.0 109 111
+ 0.257333 1 2 cbr 1000 ------- 2 1.0 2.0 118 120
- 0.257333 1 2 cbr 1000 ------- 2 1.0 2.0 118 120
r 0.257467 1 2 cbr 1000 ------- 2 1.0 2.0 110 112
+ 0.258667 1 2 cbr 1000 ------- 2 1.0 2.0 119 121
- 0.258667 1 2 cbr 1000 ------- 2 1.0 2.0 119 121
r 0.2588 1 2 cbr 1000 ------- 2 1.0 2.0 111 113
+ 0.26 1 2 cbr 1000 ------- 2 1.0 2.0 120 122
- 0.26 1 2 cbr 1000 ------- 2 1.0 2.0 120 122
r 0.260133 1 2 cbr 1000 ------- 2 1.0 2.0 112 114
+ 0.261333 1 2 cbr 1000 ------- 2 1.0 2.0 121 123
- 0.261333 1 2 cbr 1000 ------- 2 1.0 2.0 121 123
r 0.261467 1 2 cbr 1000 ------- 2 1.0 2.0 113 115
+ 0.262667 1 2 cbr 1000 ------- 2 1.0 2.0 122 124
- 0.262667 1 2 cbr 1000 ------- 2 1.0 2.0 122 124
r 0.2628 1 2 cbr 1000 ------- 2 1.0 2.0 114 116
r 0.263163 1 0 ack 40 ------- 1 3.0 0.0 0 101
+ 0.263163 0 1 tcp 1000 ------- 1 0.0 3.0 1 125
- 0.263163 0 1 tcp 1000 ------- 1 0.0 3.0 1 125
+ 0.264 1 2 cbr 1000 ------- 2 1.0 2.0 123 126
- 0.264 1 2 cbr 1000 ------- 2 1.0 2.0 123 126
r 0.264133 1 2 cbr 1000 ------- 2 1.0 2.0 115 117
+ 0.265333 1 2 cbr 1000 ------- 2 1.0 2.0 124 127
- 0.265333 1 2 cbr 1000 ------- 2 1.0 2.0 124 127
r 0.265467 1 2 cbr 1000 ------- 2 1.0 2.0 116 118
+ 0.266667 1 2 cbr 1000 ------- 2 1.0 2.0 125 128
- 0.266667 1 2 cbr 1000 ------- 2 1.0 2.0 125 128
r 0.2668 1 2 cbr 1000 ------- 2 1.0 2.0 117 119
+ 0.268 1 2 cbr 1000 ------- 2 1.0 2.0 126 129
- 0.268 1 2 cbr 1000 ------- 2 1.0 2.0 126 129
r 0.268133 1 2 cbr 1000 ------- 2 1.0 2.0 118 120
+ 0.269333 1 2 cbr 1000 ------- 2 1.0 2.0 127 130
- 0.269333 1 2 cbr 1000 ------- 2 1.0 2.0 127 130
r 0.269467 1 2 cbr 1000 ------- 2 1.0 2.0 119 121
+ 0.270667 1 2 cbr 1000 ------- 2 1.0 2.0 128 131
- 0.270667 1 2 cbr 1000 ------- 2 1.0 2.0 128 131
r 0.2708 1 2 cbr 1000 ------- 2 1.0 2.0 120 122
+ 0.272 1 2 cbr 1000 ------- 2 1.0 2.0 129 132
- 0.272 1 2 cbr 1000 ------- 2 1.0 2.0 129 132
r 0.272133 1 2 cbr 1000 ------- 2 1.0 2.0 121 123
+ 0.273333 1 2 cbr 1000 ------- 2 1.0 2.0 130 133
- 0.273333 1 2 cbr 1000 ------- 2 1.0 2.0 130 133
r 0.273467 1 2 cbr 1000 ------- 2 1.0 2.0 122 124
r 0.273963 0 1 tcp 1000 ------- 1 0.0 3.0 1 125
+ 0.273963 1 2 tcp 1000 ------- 1 0.0 3.0 1 125
- 0.274133 1 2 tcp 1000 ------- 1 0.0 3.0 1 125
+ 0.274667 1 2 cbr 1000 ------- 2 1.0 2.0 131 134
r 0.2748 1 2 cbr 1000 ------- 2 1.0 2.0 123 126
- 0.274933 1 2 cbr 1000 ------- 2 1.0 2.0 131 134
+ 0.276 1 2 cbr 1000 ------- 2 1.0 2.0 132 135
- 0.276 1 2 cbr 1000 ------- 2 1.0 2.0 132 135
r 0.276133 1 2 cbr 1000 ------- 2 1.0 2.0 124 127
+ 0.277333 1 2 cbr 1000 ------- 2 1.0 2.0 133 136
- 0.277333 1 2 cbr 1000 ------- 2 1.0 2.0 133 136
r 0.277467 1 2 cbr 1000 ------- 2 1.0 2.0 125 128
+ 0.278667 1 2 cbr 1000 ------- 2 1.0 2.0 134 137
- 0.278667 1 2 cbr 1000 ------- 2 1.0 2.0 134 137
r 0.2788 1 2 cbr 1000 ------- 2 1.0 2.0 126 129
+ 0.28 1 2 cbr 1000 ------- 2 1.0 2.0 135 138
- 0.28 1 2 cbr 1000 ------- 2 1.0 2.0 135 138
r 0.280133 1 2 cbr 1000 ------- 2 1.0 2.0 127 130
+ 0.281333 1 2 cbr 1000 ------- 2 1.0 2.0 136 139
- 0.281333 1 2 cbr 1000 ------- 2 1.0 2.0 136 139
r 0.281467 1 2 cbr 1000 ------- 2 1.0 2.0 128 131
+ 0.282667 1 2 cbr 1000 ------- 2 1.0 2.0 137 140
- 0.282667 1 2 cbr 1000 ------- 2 1.0 2.0 137 140
r 0.2828 1 2 cbr 1000 ------- 2 1.0 2.0 129 132
+ 0.284 1 2 cbr 1000 ------- 2 1.0 2.0 138 141
- 0.284 1 2 cbr 1000 ------- 2 1.0 2.0 138 141
r 0.284133 1 2 cbr 1000 ------- 2 1.0 2.0 130 133
r 0.284933 1 2 tcp 1000 ------- 1 0.0 3.0 1 125
+ 0.284933 2 3 tcp 1000 ------- 1 0.0 3.0 1 125
- 0.284933 2 3 tcp 1000 ------- 1 0.0 3.0 1 125
+ 0.285333 1 2 cbr 1000 ------- 2 1.0 2.0 139 142
- 0.285333 1 2 cbr 1000 ------- 2 1.0 2.0 139 142
r 0.285733 1 2 cbr 1000 ------- 2 1.0 2.0 131 134
+ 0.286667 1 2 cbr 1000 ------- 2 1.0 2.0 140 143
- 0.286667 1 2 cbr 1000 ------- 2 1.0 2.0 140 143
r 0.2868 1 2 cbr 1000 ------- 2 1.0 2.0 132 135
+ 0.288 1 2 cbr 1000 ------- 2 1.0 2.0 141 144
- 0.288 1 2 cbr 1000 ------- 2 1.0 2.0 141 144
r 0.288133 1 2 cbr 1000 ------- 2 1.0 2.0 133 136
+ 0.289333 1 2 cbr 1000 ------- 2 1.0 2.0 142 145
- 0.289333 1 2 cbr 1000 ------- 2 1.0 2.0 142 145
r 0.289467 1 2 cbr 1000 ------- 2 1.0 2.0 134 137
+ 0.290667 1 2 cbr 1000 ------- 2 1.0 2.0 143 146
- 0.290667 1 2 cbr 1000 ------- 2 1.0 2.0 143 146
r 0.2908 1 2 cbr 1000 ------- 2 1.0 2.0 135 138
+ 0.292 1 2 cbr 1000 ------- 2 1.0 2.0 144 147
- 0.292 1 2 cbr 1000 ------- 2 1.0 2.0 144 147
r 0.292133 1 2 cbr 1000 ------- 2 1.0 2.0 136 139
+ 0.293333 1 2 cbr 1000 ------- 2 1.0 2.0 145 148
- 0.293333 1 2 cbr 1000 ------- 2 1.0 2.0 145 148
r 0.293467 1 2 cbr 1000 ------- 2 1.0 2.0 137 140
+ 0.294667 1 2 cbr 1000 ------- 2 1.0 2.0 146 149
- 0.294667 1 2 cbr 1000 ------- 2 1.0 2.0 146 149
r 0.2948 1 2 cbr 1000 ------- 2 1.0 2.0 138 141
r 0.295733 2 3 tcp 1000 ------- 1 0.0 3.0 1 125
+ 0.295733 3 2 ack 40 ------- 1 3.0 0.0 1 150
- 0.295733 3 2 ack 40 ------- 1 3.0 0.0 1 150
+ 0.296 1 2 cbr 1000 ------- 2 1.0 2.0 147 151
- 0.296 1 2 cbr 1000 ------- 2 1.0 2.0 147 151
r 0.296133 1 2 cbr 1000 ------- 2 1.0 2.0 139 142
+ 0.297333 1 2 cbr 1000 ------- 2 1.0 2.0 148 152
- 0.297333 1 2 cbr 1000 ------- 2 1.0 2.0 148 152
r 0.297467 1 2 cbr 1000 ------- 2 1.0 2.0 140 143
+ 0.298667 1 2 cbr 1000 ------- 2 1.0 2.0 149 153
- 0.298667 1 2 cbr 1000 ------- 2 1.0 2.0 149 153
r 0.2988 1 2 cbr 1000 ------- 2 1.0 2.0 141 144
+ 0.3 1 2 cbr 1000 ------- 2 1.0 2.0 150 154
- 0.3 1 2 cbr 1000 ------- 2 1.0 2.0 150 154
r 0.300133 1 2 cbr 1000 ------- 2 1.0 2.0 142 145
+ 0.301333 1 2 cbr 1000 ------- 2 1.0 2.0 151 155
- 0.301333 1 2 cbr 1000 ------- 2 1.0 2.0 151 155
r 0.301467 1 2 cbr 1000 ------- 2 1.0 2.0 143 146
+ 0.302667 1 2 cbr 1000 ------- 2 1.0 2.0 152 156
- 0.302667 1 2 cbr 1000 ------- 2 1.0 2.0 152 156
r 0.3028 1 2 cbr 1000 ------- 2 1.0 2.0 144 147
+ 0.304 1 2 cbr 1000 ------- 2 1.0 2.0 153 157
- 0.304 1 2 cbr 1000 ------- 2 1.0 2.0 153 157
r 0.304133 1 2 cbr 1000 ------- 2 1.0 2.0 145 148
+ 0.305333 1 2 cbr 1000 ------- 2 1.0 2.0 154 158
- 0.305333 1 2 cbr 1000 ------- 2 1.0 2.0 154 158
r 0.305467 1 2 cbr 1000 ------- 2 1.0 2.0 146 149
r 0.305765 3 2 ack 40 ------- 1 3.0 0.0 1 150
+ 0.305765 2 1 ack 40 ------- 1 3.0 0.0 1 150
- 0.305765 2 1 ack 40 ------- 1 3.0 0.0 1 150
+ 0.306667 1 2 cbr 1000 ------- 2 1.0 2.0 155 159
- 0.306667 1 2 cbr 1000 ------- 2 1.0 2.0 155 159
r 0.3068 1 2 cbr 1000 ------- 2 1.0 2.0 147 151
+ 0.308 1 2 cbr 1000 ------- 2 1.0 2.0 156 160
- 0.308 1 2 cbr 1000 ------- 2 1.0 2.0 156 160
r 0.308133 1 2 cbr 1000 ------- 2 1.0 2.0 148 152
+ 0.309333 1 2 cbr 1000 ------- 2 1.0 2.0 157 161
- 0.309333 1 2 cbr 1000 ------- 2 1.0 2.0 157 161
r 0.309467 1 2 cbr 1000 ------- 2 1.0 2.0 149 153
+ 0.310667 1 2 cbr 1000 ------- 2 1.0 2.0 158 162
- 0.310667 1 2 cbr 1000 ------- 2 1.0 2.0 158 162
r 0.3108 1 2 cbr 1000 ------- 2 1.0 2.0 150 154
+ 0.312 1 2 cbr 1000 ------- 2 1.0 2.0 159 163
- 0.312 1 2 cbr 1000 ------- 2 1.0 2.0 159 163
r 0.312133 1 2 cbr 1000 ------- 2 1.0 2.0 151 155
+ 0.313333 1 2 cbr 1000 ------- 2 1.0 2.0 160 164
- 0.313333 1 2 cbr 1000 ------- 2 1.0 2.0 160 164
r 0.313467 1 2 cbr 1000 ------- 2 1.0 2.0 152 156
+ 0.314667 1 2 cbr 1000 ------- 2 1.0 2.0 161 165
- 0.314667 1 2 cbr 1000 ------- 2 1.0 2.0 161 165
r 0.3148 1 2 cbr 1000 ------- 2 1.0 2.0 153 157
r 0.315797 2 1 ack 40 ------- 1 3.0 0.0 1 150
+ 0.315797 1 0 ack 40 ------- 1 3.0 0.0 1 150
- 0.315797 1 0 ack 40 ------- 1 3.0 0.0 1 150
+ 0.316 1 2 cbr 1000 ------- 2 1.0 2.0 162 166
- 0.316 1 2 cbr 1000 ------- 2 1.0 2.0 162 166
r 0.316133 1 2 cbr 1000 ------- 2 1.0 2.0 154 158
+ 0.317333 1 2 cbr 1000 ------- 2 1.0 2.0 163 167
- 0.317333 1 2 cbr 1000 ------- 2 1.0 2.0 163 167
r 0.317467 1 2 cbr 1000 ------- 2 1.0 2.0 155 159
+ 0.318667 1 2 cbr 1000 ------- 2 1.0 2.0 164 168
- 0.318667 1 2 cbr 1000 ------- 2 1.0 2.0 164 168
r 0.3188 1 2 cbr 1000 ------- 2 1.0 2.0 156 160
+ 0.32 1 2 cbr 1000 ------- 2 1.0 2.0 165 169
- 0.32 1 2 cbr 1000 ------- 2 1.0 2.0 165 169
r 0.320133 1 2 cbr 1000 ------- 2 1.0 2.0 157 161
+ 0.321333 1 2 cbr 1000 ------- 2 1.0 2.0 166 170
- 0.321333 1 2 cbr 1000 ------- 2 1.0 2.0 166 170
r 0.321467 1 2 cbr 1000 ------- 2 1.0 2.0 158 162
+ 0.322667 1 2 cbr 1000 ------- 2 1.0 2.0 167 171
- 0.322667 1 2 cbr 1000 ------- 2 1.0 2.0 167 171
r 0.3228 1 2 cbr 1000 ------- 2 1.0 2.0 159 163
+ 0.324 1 2 cbr 1000 ------- 2 1.0 2.0 168 172
- 0.324 1 2 cbr 1000 ------- 2 1.0 2.0 168 172
r 0.324133 1 2 cbr 1000 ------- 2 1.0 2.0 160 164
+ 0.325333 1 2 cbr 1000 ------- 2 1.0 2.0 169 173
- 0.325333 1 2 cbr 1000 ------- 2 1.0 2.0 169 173
r 0.325467 1 2 cbr 1000 ------- 2 1.0 2.0 161 165
r 0.325829 1 0 ack 40 ------- 1 3.0 0.0 1 150
+ 0.325829 0 1 tcp 1000 ------- 1 0.0 3.0 2 174
- 0.325829 0 1 tcp 1000 ------- 1 0.0 3.0 2 174
+ 0.325829 0 1 tcp 1000 ------- 1 0.0 3.0 3 175
+ 0.325829 0 1 tcp 1000 ------- 1 0.0 3.0 4 176
- 0.326629 0 1 tcp 1000 ------- 1 0.0 3.0 3 175
+ 0.326667 1 2 cbr 1000 ------- 2 1.0 2.0 170 177
- 0.326667 1 2 cbr 1000 ------- 2 1.0 2.0 170 177
r 0.3268 1 2 cbr 1000 ------- 2 1.0 2.0 162 166
- 0.327429 0 1 tcp 1000 ------- 1 0.0 3.0 4 176
+ 0.328 1 2 cbr 1000 ------- 2 1.0 2.0 171 178
- 0.328 1 2 cbr 1000 ------- 2 1.0 2.0 171 178
r 0.328133 1 2 cbr 1000 ------- 2 1.0 2.0 163 167
+ 0.329333 1 2 cbr 1000 ------- 2 1.0 2.0 172 179
- 0.329333 1 2 cbr 1000 ------- 2 1.0 2.0 172 179
r 0.329467 1 2 cbr 1000 ------- 2 1.0 2.0 164 168
+ 0.330667 1 2 cbr 1000 ------- 2 1.0 2.0 173 180
- 0.330667 1 2 cbr 1000 ------- 2 1.0 2.0 173 180
r 0.3308 1 2 cbr 1000 ------- 2 1.0 2.0 165 169
+ 0.332 1 2 cbr 1000 ------- 2 1.0 2.0 174 181
- 0.332 1 2 cbr 1000 ------- 2 1.0 2.0 174 181
r 0.332133 1 2 cbr 1000 ------- 2 1.0 2.0 166 170
+ 0.333333 1 2 cbr 1000 ------- 2 1.0 2.0 175 182
- 0.333333 1 2 cbr 1000 ------- 2 1.0 2.0 175 182
r 0.333467 1 2 cbr 1000 ------- 2 1.0 2.0 167 171
+ 0.334667 1 2 cbr 1000 ------- 2 1.0 2.0 176 183
- 0.334667 1 2 cbr 1000 ------- 2 1.0 2.0 176 183
r 0.3348 1 2 cbr 1000 ------- 2 1.0 2.0 168 172
+ 0.336 1 2 cbr 1000 ------- 2 1.0 2.0 177 184
- 0.336 1 2 cbr 1000 ------- 2 1.0 2.0 177 184
r 0.336133 1 2 cbr 1000 ------- 2 1.0 2.0 169 173
r 0.336629 0 1 tcp 1000 ------- 1 0.0 3.0 2 174
+ 0.336629 1 2 tcp 1000 ------- 1 0.0 3.0 2 174
- 0.3368 1 2 tcp 1000 ------- 1 0.0 3.0 2 174
+ 0.337333 1 2 cbr 1000 ------- 2 1.0 2.0 178 185
r 0.337429 0 1 tcp 1000 ------- 1 0.0 3.0 3 175
+ 0.337429 1 2 tcp 1000 ------- 1 0.0 3.0 3 175
r 0.337467 1 2 cbr 1000 ------- 2 1.0 2.0 170 177
- 0.3376 1 2 cbr 1000 ------- 2 1.0 2.0 178 185
r 0.338229 0 1 tcp 1000 ------- 1 0.0 3.0 4 176
+ 0.338229 1 2 tcp 1000 ------- 1 0.0 3.0 4 176
- 0.3384 1 2 tcp 1000 ------- 1 0.0 3.0 3 175
+ 0.338667 1 2 cbr 1000 ------- 2 1.0 2.0 179 186
r 0.3388 1 2 cbr 1000 ------- 2 1.0 2.0 171 178
- 0.3392 1 2 tcp 1000 ------- 1 0.0 3.0 4 176
+ 0.34 1 2 cbr 1000 ------- 2 1.0 2.0 180 187
- 0.34 1 2 cbr 1000 ------- 2 1.0 2.0 179 186
r 0.340133 1 2 cbr 1000 ------- 2 1.0 2.0 172 179
- 0.3408 1 2 cbr 1000 ------- 2 1.0 2.0 180 187
+ 0.341333 1 2 cbr 1000 ------- 2 1.0 2.0 181 188
r 0.341467 1 2 cbr 1000 ------- 2 1.0 2.0 173 180
- 0.3416 1 2 cbr 1000 ------- 2 1.0 2.0 181 188
+ 0.342667 1 2 cbr 1000 ------- 2 1.0 2.0 182 189
- 0.342667 1 2 cbr 1000 ------- 2 1.0 2.0 182 189
r 0.3428 1 2 cbr 1000 ------- 2 1.0 2.0 174 181
+ 0.344 1 2 cbr 1000 ------- 2 1.0 2.0 183 190
- 0.344 1 2 cbr 1000 ------- 2 1.0 2.0 183 190
r 0.344133 1 2 cbr 1000 ------- 2 1.0 2.0 175 182
+ 0.345333 1 2 cbr 1000 ------- 2 1.0 2.0 184 191
- 0.345333 1 2 cbr 1000 ------- 2 1.0 2.0 184 191
r 0.345467 1 2 cbr 1000 ------- 2 1.0 2.0 176 183
+ 0.346667 1 2 cbr 1000 ------- 2 1.0 2.0 185 192
- 0.346667 1 2 cbr 1000 ------- 2 1.0 2.0 185 192
r 0.3468 1 2 cbr 1000 ------- 2 1.0 2.0 177 184
r 0.3476 1 2 tcp 1000 ------- 1 0.0 3.0 2 174
+ 0.3476 2 3 tcp 1000 ------- 1 0.0 3.0 2 174
- 0.3476 2 3 tcp 1000 ------- 1 0.0 3.0 2 174
+ 0.348 1 2 cbr 1000 ------- 2 1.0 2.0 186 193
- 0.348 1 2 cbr 1000 ------- 2 1.0 2.0 186 193
r 0.3484 1 2 cbr 1000 ------- 2 1.0 2.0 178 185
r 0.3492 1 2 tcp 1000 ------- 1 0.0 3.0 3 175
+ 0.3492 2 3 tcp 1000 ------- 1 0.0 3.0 3 175
- 0.3492 2 3 tcp 1000 ------- 1 0.0 3.0 3 175
+ 0.349333 1 2 cbr 1000 ------- 2 1.0 2.0 187 194
- 0.349333 1 2 cbr 1000 ------- 2 1.0 2.0 187 194
r 0.35 1 2 tcp 1000 ------- 1 0.0 3.0 4 176
+ 0.35 2 3 tcp 1000 ------- 1 0.0 3.0 4 176
- 0.35 2 3 tcp 1000 ------- 1 0.0 3.0 4 176
+ 0.350667 1 2 cbr 1000 ------- 2 1.0 2.0 188 195
- 0.350667 1 2 cbr 1000 ------- 2 1.0 2.0 188 195
r 0.3508 1 2 cbr 1000 ------- 2 1.0 2.0 179 186
r 0.3516 1 2 cbr 1000 ------- 2 1.0 2.0 180 187
+ 0.352 1 2 cbr 1000 ------- 2 1.0 2.0 189 196
- 0.352 1 2 cbr 1000 ------- 2 1.0 2.0 189 196
r 0.3524 1 2 cbr 1000 ------- 2 1.0 2.0 181 188
+ 0.353333 1 2 cbr 1000 ------- 2 1.0 2.0 190 197
- 0.353333 1 2 cbr 1000 ------- 2 1.0 2.0 190 197
r 0.353467 1 2 cbr 1000 ------- 2 1.0 2.0 182 189
+ 0.354667 1 2 cbr 1000 ------- 2 1.0 2.0 191 198
- 0.354667 1 2 cbr 1000 ------- 2 1.0 2.0 191 198
r 0.3548 1 2 cbr 1000 ------- 2 1.0 2.0 183 190