+ 0.1 1 2 cbr 1000 ------- 2 1.0 2.0 0 0
- 0.1 1 2 cbr 1000 ------- 2 1.0 2.0 0 0
+ 0.1016 1 2 cbr 1000 ------- 2 1.0 2.0 1 1
- 0.1016 1 2 cbr 1000 ------- 2 1.0 2.0 1 1
+ 0.1032 1 2 cbr 1000 ------- 2 1.0 2.0 2 2
- 0.1032 1 2 cbr 1000 ------- 2 1.0 2.0 2 2
+ 0.1048 1 2 cbr 1000 ------- 2 1.0 2.0 3 3
- 0.1048 1 2 cbr 1000 ------- 2 1.0 2.0 3 3
+ 0.1064 1 2 cbr 1000 ------- 2 1.0 2.0 4 4
- 0.1064 1 2 cbr 1000 ------- 2 1.0 2.0 4 4
+ 0.108 1 2 cbr 1000 ------- 2 1.0 2.0 5 5
- 0.108 1 2 cbr 1000 ------- 2 1.0 2.0 5 5
+ 0.1096 1 2 cbr 1000 ------- 2 1.0 2.0 6 6
- 0.1096 1 2 cbr 1000 ------- 2 1.0 2.0 6 6
r 0.1108 1 2 cbr 1000 ------- 2 1.0 2.0 0 0
+ 0.1112 1 2 cbr 1000 ------- 2 1.0 2.0 7 7
- 0.1112 1 2 cbr 1000 ------- 2 1.0 2.0 7 7
r 0.1124 1 2 cbr 1000 ------- 2 1.0 2.0 1 1
+ 0.1128 1 2 cbr 1000 ------- 2 1.0 2.0 8 8
- 0.1128 1 2 cbr 1000 ------- 2 1.0 2.0 8 8
r 0.114 1 2 cbr 1000 ------- 2 1.0 2.0 2 2
+ 0.1144 1 2 cbr 1000 ------- 2 1.0 2.0 9 9
- 0.1144 1 2 cbr 1000 ------- 2 1.0 2.0 9 9
r 0.1156 1 2 cbr 1000 ------- 2 1.0 2.0 3 3
+ 0.116 1 2 cbr 1000 ------- 2 1.0 2.0 10 10
- 0.116 1 2 cbr 1000 ------- 2 1.0 2.0 10 10
r 0.1172 1 2 cbr 1000 ------- 2 1.0 2.0 4 4
+ 0.1176 1 2 cbr 1000 ------- 2 1.0 2.0 11 11
- 0.1176 1 2 cbr 1000 ------- 2 1.0 2.0 11 11
r 0.1188 1 2 cbr 1000 ------- 2 1.0 2.0 5 5
+ 0.1192 1 2 cbr 1000 ------- 2 1.0 2.0 12 12
- 0.1192 1 2 cbr 1000 ------- 2 1.0 2.0 12 12
r 0.1204 1 2 cbr 1000 ------- 2 1.0 2.0 6 6
+ 0.1208 1 2 cbr 1000 ------- 2 1.0 2.0 13 13
- 0.1208 1 2 cbr 1000 ------- 2 1.0 2.0 13 13
r 0.122 1 2 cbr 1000 ------- 2 1.0 2.0 7 7
+ 0.1224 1 2 cbr 1000 ------- 2 1.0 2.0 14 14
- 0.1224 1 2 cbr 1000 ------- 2 1.0 2.0 14 14
r 0.1236 1 2 cbr 1000 ------- 2 1.0 2.0 8 8
+ 0.124 1 2 cbr 1000 ------- 2 1.0 2.0 15 15
- 0.124 1 2 cbr 1000 ------- 2 1.0 2.0 15 15
r 0.1252 1 2 cbr 1000 ------- 2 1.0 2.0 9 9
+ 0.1256 1 2 cbr 1000 ------- 2 1.0 2.0 16 16
- 0.1256 1 2 cbr 1000 ------- 2 1.0 2.0 16 16
r 0.1268 1 2 cbr 1000 ------- 2 1.0 2.0 10 10
+ 0.1272 1 2 cbr 1000 ------- 2 1.0 2.0 17 17
- 0.1272 1 2 cbr 1000 ------- 2 1.0 2.0 17 17
r 0.1284 1 2 cbr 1000 ------- 2 1.0 2.0 11 11
+ 0.1288 1 2 cbr 1000 ------- 2 1.0 2.0 18 18
- 0.1288 1 2 cbr 1000 ------- 2 1.0 2.0 18 18
r 0.13 1 2 cbr 1000 ------- 2 1.0 2.0 12 12
+ 0.1304 1 2 cbr 1000 ------- 2 1.0 2.0 19 19
- 0.1304 1 2 cbr 1000 ------- 2 1.0 2.0 19 19
r 0.1316 1 2 cbr 1000 ------- 2 1.0 2.0 13 13
+ 0.132 1 2 cbr 1000 ------- 2 1.0 2.0 20 20
- 0.132 1 2 cbr 1000 ------- 2 1.0 2.0 20 20
r 0.1332 1 2 cbr 1000 ------- 2 1.0 2.0 14 14
+ 0.1336 1 2 cbr 1000 ------- 2 1.0 2.0 21 21
- 0.1336 1 2 cbr 1000 ------- 2 1.0 2.0 21 21
r 0.1348 1 2 cbr 1000 ------- 2 1.0 2.0 15 15
+ 0.1352 1 2 cbr 1000 ------- 2 1.0 2.0 22 22
- 0.1352 1 2 cbr 1000 ------- 2 1.0 2.0 22 22
r 0.1364 1 2 cbr 1000 ------- 2 1.0 2.0 16 16
+ 0.1368 1 2 cbr 1000 ------- 2 1.0 2.0 23 23
- 0.1368 1 2 cbr 1000 ------- 2 1.0 2.0 23 23
r 0.138 1 2 cbr 1000 ------- 2 1.0 2.0 17 17
+ 0.1384 1 2 cbr 1000 ------- 2 1.0 2.0 24 24
- 0.1384 1 2 cbr 1000 ------- 2 1.0 2.0 24 24
r 0.1396 1 2 cbr 1000 ------- 2 1.0 2.0 18 18
+ 0.14 1 2 cbr 1000 ------- 2 1.0 2.0 25 25
- 0.14 1 2 cbr 1000 ------- 2 1.0 2.0 25 25
r 0.1412 1 2 cbr 1000 ------- 2 1.0 2.0 19 19
+ 0.1416 1 2 cbr 1000 ------- 2 1.0 2.0 26 26
- 0.1416 1 2 cbr 1000 ------- 2 1.0 2.0 26 26
r 0.1428 1 2 cbr 1000 ------- 2 1.0 2.0 20 20
+ 0.1432 1 2 cbr 1000 ------- 2 1.0 2.0 27 27
- 0.1432 1 2 cbr 1000 ------- 2 1.0 2.0 27 27
r 0.1444 1 2 cbr 1000 ------- 2 1.0 2.0 21 21
+ 0.1448 1 2 cbr 1000 ------- 2 1.0 2.0 28 28
- 0.1448 1 2 cbr 1000 ------- 2 1.0 2.0 28 28
r 0.146 1 2 cbr 1000 ------- 2 1.0 2.0 22 22
+ 0.1464 1 2 cbr 1000 ------- 2 1.0 2.0 29 29
- 0.1464 1 2 cbr 1000 ------- 2 1.0 2.0 29 29
r 0.1476 1 2 cbr 1000 ------- 2 1.0 2.0 23 23
+ 0.148 1 2 cbr 1000 ------- 2 1.0 2.0 30 30
- 0.148 1 2 cbr 1000 ------- 2 1.0 2.0 30 30
r 0.1492 1 2 cbr 1000 ------- 2 1.0 2.0 24 24
+ 0.1496 1 2 cbr 1000 ------- 2 1.0 2.0 31 31
- 0.1496 1 2 cbr 1000 ------- 2 1.0 2.0 31 31
r 0.1508 1 2 cbr 1000 ------- 2 1.0 2.0 25 25
+ 0.1512 1 2 cbr 1000 ------- 2 1.0 2.0 32 32
- 0.1512 1 2 cbr 1000 ------- 2 1.0 2.0 32 32
r 0.1524 1 2 cbr 1000 ------- 2 1.0 2.0 26 26
+ 0.1528 1 2 cbr 1000 ------- 2 1.0 2.0 33 33
- 0.1528 1 2 cbr 1000 ------- 2 1.0 2.0 33 33
r 0.154 1 2 cbr 1000 ------- 2 1.0 2.0 27 27
+ 0.1544 1 2 cbr 1000 ------- 2 1.0 2.0 34 34
- 0.1544 1 2 cbr 1000 ------- 2 1.0 2.0 34 34
r 0.1556 1 2 cbr 1000 ------- 2 1.0 2.0 28 28
+ 0.156 1 2 cbr 1000 ------- 2 1.0 2.0 35 35
- 0.156 1 2 cbr 1000 ------- 2 1.0 2.0 35 35
r 0.1572 1 2 cbr 1000 ------- 2 1.0 2.0 29 29
+ 0.1576 1 2 cbr 1000 ------- 2 1.0 2.0 36 36
- 0.1576 1 2 cbr 1000 ------- 2 1.0 2.0 36 36
r 0.1588 1 2 cbr 1000 ------- 2 1.0 2.0 30 30
+ 0.1592 1 2 cbr 1000 ------- 2 1.0 2.0 37 37
- 0.1592 1 2 cbr 1000 ------- 2 1.0 2.0 37 37
r 0.1604 1 2 cbr 1000 ------- 2 1.0 2.0 31 31
+ 0.1608 1 2 cbr 1000 ------- 2 1.0 2.0 38 38
- 0.1608 1 2 cbr 1000 ------- 2 1.0 2.0 38 38
r 0.162 1 2 cbr 1000 ------- 2 1.0 2.0 32 32
+ 0.1624 1 2 cbr 1000 ------- 2 1.0 2.0 39 39
- 0.1624 1 2 cbr 1000 ------- 2 1.0 2.0 39 39
r 0.1636 1 2 cbr 1000 ------- 2 1.0 2.0 33 33
+ 0.164 1 2 cbr 1000 ------- 2 1.0 2.0 40 40
- 0.164 1 2 cbr 1000 ------- 2 1.0 2.0 40 40
r 0.1652 1 2 cbr 1000 ------- 2 1.0 2.0 34 34
+ 0.1656 1 2 cbr 1000 ------- 2 1.0 2.0 41 41
- 0.1656 1 2 cbr 1000 ------- 2 1.0 2.0 41 41
r 0.1668 1 2 cbr 1000 ------- 2 1.0 2.0 35 35
+ 0.1672 1 2 cbr 1000 ------- 2 1.0 2.0 42 42
- 0.1672 1 2 cbr 1000 ------- 2 1.0 2.0 42 42
r 0.1684 1 2 cbr 1000 ------- 2 1.0 2.0 36 36
+ 0.1688 1 2 cbr 1000 ------- 2 1.0 2.0 43 43
- 0.1688 1 2 cbr 1000 ------- 2 1.0 2.0 43 43
r 0.17 1 2 cbr 1000 ------- 2 1.0 2.0 37 37
+ 0.1704 1 2 cbr 1000 ------- 2 1.0 2.0 44 44
- 0.1704 1 2 cbr 1000 ------- 2 1.0 2.0 44 44
r 0.1716 1 2 cbr 1000 ------- 2 1.0 2.0 38 38
+ 0.172 1 2 cbr 1000 ------- 2 1.0 2.0 45 45
- 0.172 1 2 cbr 1000 ------- 2 1.0 2.0 45 45
r 0.1732 1 2 cbr 1000 ------- 2 1.0 2.0 39 39
+ 0.1736 1 2 cbr 1000 ------- 2 1.0 2.0 46 46
- 0.1736 1 2 cbr 1000 ------- 2 1.0 2.0 46 46
r 0.1748 1 2 cbr 1000 ------- 2 1.0 2.0 40 40
+ 0.1752 1 2 cbr 1000 ------- 2 1.0 2.0 47 47
- 0.1752 1 2 cbr 1000 ------- 2 1.0 2.0 47 47
r 0.1764 1 2 cbr 1000 ------- 2 1.0 2.0 41 41
+ 0.1768 1 2 cbr 1000 ------- 2 1.0 2.0 48 48
- 0.1768 1 2 cbr 1000 ------- 2 1.0 2.0 48 48
r 0.178 1 2 cbr 1000 ------- 2 1.0 2.0 42 42
+ 0.1784 1 2 cbr 1000 ------- 2 1.0 2.0 49 49
- 0.1784 1 2 cbr 1000 ------- 2 1.0 2.0 49 49
r 0.1796 1 2 cbr 1000 ------- 2 1.0 2.0 43 43
+ 0.18 1 2 cbr 1000 ------- 2 1.0 2.0 50 50
- 0.18 1 2 cbr 1000 ------- 2 1.0 2.0 50 50
r 0.1812 1 2 cbr 1000 ------- 2 1.0 2.0 44 44
+ 0.1816 1 2 cbr 1000 ------- 2 1.0 2.0 51 51
- 0.1816 1 2 cbr 1000 ------- 2 1.0 2.0 51 51
r 0.1828 1 2 cbr 1000 ------- 2 1.0 2.0 45 45
+ 0.1832 1 2 cbr 1000 ------- 2 1.0 2.0 52 52
- 0.1832 1 2 cbr 1000 ------- 2 1.0 2.0 52 52
r 0.1844 1 2 cbr 1000 ------- 2 1.0 2.0 46 46
+ 0.1848 1 2 cbr 1000 ------- 2 1.0 2.0 53 53
- 0.1848 1 2 cbr 1000 ------- 2 1.0 2.0 53 53
r 0.186 1 2 cbr 1000 ------- 2 1.0 2.0 47 47
+ 0.1864 1 2 cbr 1000 ------- 2 1.0 2.0 54 54
- 0.1864 1 2 cbr 1000 ------- 2 1.0 2.0 54 54
r 0.1876 1 2 cbr 1000 ------- 2 1.0 2.0 48 48
+ 0.188 1 2 cbr 1000 ------- 2 1.0 2.0 55 55
- 0.188 1 2 cbr 1000 ------- 2 1.0 2.0 55 55
r 0.1892 1 2 cbr 1000 ------- 2 1.0 2.0 49 49
+ 0.1896 1 2 cbr 1000 ------- 2 1.0 2.0 56 56
- 0.1896 1 2 cbr 1000 ------- 2 1.0 2.0 56 56
r 0.1908 1 2 cbr 1000 ------- 2 1.0 2.0 50 50
+ 0.1912 1 2 cbr 1000 ------- 2 1.0 2.0 57 57
- 0.1912 1 2 cbr 1000 ------- 2 1.0 2.0 57 57
r 0.1924 1 2 cbr 1000 ------- 2 1.0 2.0 51 51
+ 0.1928 1 2 cbr 1000 ------- 2 1.0 2.0 58 58
- 0.1928 1 2 cbr 1000 ------- 2 1.0 2.0 58 58
r 0.194 1 2 cbr 1000 ------- 2 1.0 2.0 52 52
+ 0.1944 1 2 cbr 1000 ------- 2 1.0 2.0 59 59
- 0.1944 1 2 cbr 1000 ------- 2 1.0 2.0 59 59
r 0.1956 1 2 cbr 1000 ------- 2 1.0 2.0 53 53
+ 0.196 1 2 cbr 1000 ------- 2 1.0 2.0 60 60
- 0.196 1 2 cbr 1000 ------- 2 1.0 2.0 60 60
r 0.1972 1 2 cbr 1000 ------- 2 1.0 2.0 54 54
+ 0.1976 1 2 cbr 1000 ------- 2 1.0 2.0 61 61
- 0.1976 1 2 cbr 1000 ------- 2 1.0 2.0 61 61
r 0.1988 1 2 cbr 1000 ------- 2 1.0 2.0 55 55
+ 0.1992 1 2 cbr 1000 ------- 2 1.0 2.0 62 62
- 0.1992 1 2 cbr 1000 ------- 2 1.0 2.0 62 62
+ 0.2 0 1 tcp 40 ------- 1 0.0 3.0 0 63
- 0.2 0 1 tcp 40 ------- 1 0.0 3.0 0 63
r 0.2004 1 2 cbr 1000 ------- 2 1.0 2.0 56 56
+ 0.2008 1 2 cbr 1000 ------- 2 1.0 2.0 63 64
- 0.2008 1 2 cbr 1000 ------- 2 1.0 2.0 63 64
r 0.202 1 2 cbr 1000 ------- 2 1.0 2.0 57 57
+ 0.2024 1 2 cbr 1000 ------- 2 1.0 2.0 64 65
- 0.2024 1 2 cbr 1000 ------- 2 1.0 2.0 64 65
r 0.2036 1 2 cbr 1000 ------- 2 1.0 2.0 58 58
+ 0.204 1 2 cbr 1000 ------- 2 1.0 2.0 65 66
- 0.204 1 2 cbr 1000 ------- 2 1.0 2.0 65 66
r 0.2052 1 2 cbr 1000 ------- 2 1.0 2.0 59 59
+ 0.2056 1 2 cbr 1000 ------- 2 1.0 2.0 66 67
- 0.2056 1 2 cbr 1000 ------- 2 1.0 2.0 66 67
r 0.2068 1 2 cbr 1000 ------- 2 1.0 2.0 60 60
+ 0.2072 1 2 cbr 1000 ------- 2 1.0 2.0 67 68
- 0.2072 1 2 cbr 1000 ------- 2 1.0 2.0 67 68
r 0.2084 1 2 cbr 1000 ------- 2 1.0 2.0 61 61
+ 0.2088 1 2 cbr 1000 ------- 2 1.0 2.0 68 69
- 0.2088 1 2 cbr 1000 ------- 2 1.0 2.0 68 69
r 0.21 1 2 cbr 1000 ------- 2 1.0 2.0 62 62
r 0.210032 0 1 tcp 40 ------- 1 0.0 3.0 0 63
+ 0.210032 1 2 tcp 40 ------- 1 0.0 3.0 0 63
- 0.210032 1 2 tcp 40 ------- 1 0.0 3.0 0 63
+ 0.2104 1 2 cbr 1000 ------- 2 1.0 2.0 69 70
- 0.2104 1 2 cbr 1000 ------- 2 1.0 2.0 69 70
r 0.2116 1 2 cbr 1000 ------- 2 1.0 2.0 63 64
+ 0.212 1 2 cbr 1000 ------- 2 1.0 2.0 70 71
- 0.212 1 2 cbr 1000 ------- 2 1.0 2.0 70 71
r 0.2132 1 2 cbr 1000 ------- 2 1.0 2.0 64 65
+ 0.2136 1 2 cbr 1000 ------- 2 1.0 2.0 71 72
- 0.2136 1 2 cbr 1000 ------- 2 1.0 2.0 71 72
r 0.2148 1 2 cbr 1000 ------- 2 1.0 2.0 65 66
+ 0.2152 1 2 cbr 1000 ------- 2 1.0 2.0 72 73
- 0.2152 1 2 cbr 1000 ------- 2 1.0 2.0 72 73
r 0.2164 1 2 cbr 1000 ------- 2 1.0 2.0 66 67
+ 0.2168 1 2 cbr 1000 ------- 2 1.0 2.0 73 74
- 0.2168 1 2 cbr 1000 ------- 2 1.0 2.0 73 74
r 0.218 1 2 cbr 1000 ------- 2 1.0 2.0 67 68
+ 0.2184 1 2 cbr 1000 ------- 2 1.0 2.0 74 75
- 0.2184 1 2 cbr 1000 ------- 2 1.0 2.0 74 75
r 0.2196 1 2 cbr 1000 ------- 2 1.0 2.0 68 69
+ 0.22 1 2 cbr 1000 ------- 2 1.0 2.0 75 76
- 0.22 1 2 cbr 1000 ------- 2 1.0 2.0 75 76
r 0.220064 1 2 tcp 40 ------- 1 0.0 3.0 0 63
+ 0.220064 2 3 tcp 40 ------- 1 0.0 3.0 0 63
- 0.220064 2 3 tcp 40 ------- 1 0.0 3.0 0 63
r 0.2212 1 2 cbr 1000 ------- 2 1.0 2.0 69 70
+ 0.2216 1 2 cbr 1000 ------- 2 1.0 2.0 76 77
- 0.2216 1 2 cbr 1000 ------- 2 1.0 2.0 76 77
r 0.2228 1 2 cbr 1000 ------- 2 1.0 2.0 70 71
+ 0.2232 1 2 cbr 1000 ------- 2 1.0 2.0 77 78
- 0.2232 1 2 cbr 1000 ------- 2 1.0 2.0 77 78
r 0.2244 1 2 cbr 1000 ------- 2 1.0 2.0 71 72
+ 0.2248 1 2 cbr 1000 ------- 2 1.0 2.0 78 79
- 0.2248 1 2 cbr 1000 ------- 2 1.0 2.0 78 79
r 0.226 1 2 cbr 1000 ------- 2 1.0 2.0 72 73
+ 0.2264 1 2 cbr 1000 ------- 2 1.0 2.0 79 80
- 0.2264 1 2 cbr 1000 ------- 2 1.0 2.0 79 80
r 0.2276 1 2 cbr 1000 ------- 2 1.0 2.0 73 74
+ 0.228 1 2 cbr 1000 ------- 2 1.0 2.0 80 81
- 0.228 1 2 cbr 1000 ------- 2 1.0 2.0 80 81
r 0.2292 1 2 cbr 1000 ------- 2 1.0 2.0 74 75
+ 0.2296 1 2 cbr 1000 ------- 2 1.0 2.0 81 82
- 0.2296 1 2 cbr 1000 ------- 2 1.0 2.0 81 82
r 0.230096 2 3 tcp 40 ------- 1 0.0 3.0 0 63
+ 0.230096 3 2 ack 40 ------- 1 3.0 0.0 0 83
- 0.230096 3 2 ack 40 ------- 1 3.0 0.0 0 83
r 0.2308 1 2 cbr 1000 ------- 2 1.0 2.0 75 76
+ 0.2312 1 2 cbr 1000 ------- 2 1.0 2.0 82 84
- 0.2312 1 2 cbr 1000 ------- 2 1.0 2.0 82 84
r 0.2324 1 2 cbr 1000 ------- 2 1.0 2.0 76 77
+ 0.2328 1 2 cbr 1000 ------- 2 1.0 2.0 83 85
- 0.2328 1 2 cbr 1000 ------- 2 1.0 2.0 83 85
r 0.234 1 2 cbr 1000 ------- 2 1.0 2.0 77 78
+ 0.2344 1 2 cbr 1000 ------- 2 1.0 2.0 84 86
- 0.2344 1 2 cbr 1000 ------- 2 1.0 2.0 84 86
r 0.2356 1 2 cbr 1000 ------- 2 1.0 2.0 78 79
+ 0.236 1 2 cbr 1000 ------- 2 1.0 2.0 85 87
- 0.236 1 2 cbr 1000 ------- 2 1.0 2.0 85 87
r 0.2372 1 2 cbr 1000 ------- 2 1.0 2.0 79 80
+ 0.2376 1 2 cbr 1000 ------- 2 1.0 2.0 86 88
- 0.2376 1 2 cbr 1000 ------- 2 1.0 2.0 86 88
r 0.2388 1 2 cbr 1000 ------- 2 1.0 2.0 80 81
+ 0.2392 1 2 cbr 1000 ------- 2 1.0 2.0 87 89
- 0.2392 1 2 cbr 1000 ------- 2 1.0 2.0 87 89
r 0.240128 3 2 ack 40 ------- 1 3.0 0.0 0 83
+ 0.240128 2 1 ack 40 ------- 1 3.0 0.0 0 83
- 0.240128 2 1 ack 40 ------- 1 3.0 0.0 0 83
r 0.2404 1 2 cbr 1000 ------- 2 1.0 2.0 81 82
+ 0.2408 1 2 cbr 1000 ------- 2 1.0 2.0 88 90
- 0.2408 1 2 cbr 1000 ------- 2 1.0 2.0 88 90
r 0.242 1 2 cbr 1000 ------- 2 1.0 2.0 82 84
+ 0.2424 1 2 cbr 1000 ------- 2 1.0 2.0 89 91
- 0.2424 1 2 cbr 1000 ------- 2 1.0 2.0 89 91
r 0.2436 1 2 cbr 1000 ------- 2 1.0 2.0 83 85
+ 0.244 1 2 cbr 1000 ------- 2 1.0 2.0 90 92
- 0.244 1 2 cbr 1000 ------- 2 1.0 2.0 90 92
r 0.2452 1 2 cbr 1000 ------- 2 1.0 2.0 84 86
+ 0.2456 1 2 cbr 1000 ------- 2 1.0 2.0 91 93
- 0.2456 1 2 cbr 1000 ------- 2 1.0 2.0 91 93
r 0.2468 1 2 cbr 1000 ------- 2 1.0 2.0 85 87
+ 0.2472 1 2 cbr 1000 ------- 2 1.0 2.0 92 94
- 0.2472 1 2 cbr 1000 ------- 2 1.0 2.0 92 94
r 0.2484 1 2 cbr 1000 ------- 2 1.0 2.0 86 88
+ 0.2488 1 2 cbr 1000 ------- 2 1.0 2.0 93 95
- 0.2488 1 2 cbr 1000 ------- 2 1.0 2.0 93 95
r 0.25 1 2 cbr 1000 ------- 2 1.0 2.0 87 89
r 0.25016 2 1 ack 40 ------- 1 3.0 0.0 0 83
+ 0.25016 1 0 ack 40 ------- 1 3.0 0.0 0 83
- 0.25016 1 0 ack 40 ------- 1 3.0 0.0 0 83
+ 0.2504 1 2 cbr 1000 ------- 2 1.0 2.0 94 96
- 0.2504 1 2 cbr 1000 ------- 2 1.0 2.0 94 96
r 0.2516 1 2 cbr 1000 ------- 2 1.0 2.0 88 90
+ 0.252 1 2 cbr 1000 ------- 2 1.0 2.0 95 97
- 0.252 1 2 cbr 1000 ------- 2 1.0 2.0 95 97
r 0.2532 1 2 cbr 1000 ------- 2 1.0 2.0 89 91
+ 0.2536 1 2 cbr 1000 ------- 2 1.0 2.0 96 98
- 0.2536 1 2 cbr 1000 ------- 2 1.0 2.0 96 98
r 0.2548 1 2 cbr 1000 ------- 2 1.0 2.0 90 92
+ 0.2552 1 2 cbr 1000 ------- 2 1.0 2.0 97 99
- 0.2552 1 2 cbr 1000 ------- 2 1.0 2.0 97 99
r 0.2564 1 2 cbr 1000 ------- 2 1.0 2.0 91 93
+ 0.2568 1 2 cbr 1000 ------- 2 1.0 2.0 98 100
- 0.2568 1 2 cbr 1000 ------- 2 1.0 2.0 98 100
r 0.258 1 2 cbr 1000 ------- 2 1.0 2.0 92 94
+ 0.2584 1 2 cbr 1000 ------- 2 1.0 2.0 99 101
- 0.2584 1 2 cbr 1000 ------- 2 1.0 2.0 99 101
r 0.2596 1 2 cbr 1000 ------- 2 1.0 2.0 93 95
+ 0.26 1 2 cbr 1000 ------- 2 1.0 2.0 100 102
- 0.26 1 2 cbr 1000 ------- 2 1.0 2.0 100 102
r 0.260192 1 0 ack 40 ------- 1 3.0 0.0 0 83
+ 0.260192 0 1 tcp 1040 ------- 1 0.0 3.0 1 103
- 0.260192 0 1 tcp 1040 ------- 1 0.0 3.0 1 103
+ 0.260192 0 1 tcp 1040 ------- 1 0.0 3.0 2 104
- 0.261024 0 1 tcp 1040 ------- 1 0.0 3.0 2 104
r 0.2612 1 2 cbr 1000 ------- 2 1.0 2.0 94 96
+ 0.2616 1 2 cbr 1000 ------- 2 1.0 2.0 101 105
- 0.2616 1 2 cbr 1000 ------- 2 1.0 2.0 101 105
r 0.2628 1 2 cbr 1000 ------- 2 1.0 2.0 95 97
+ 0.2632 1 2 cbr 1000 ------- 2 1.0 2.0 102 106
- 0.2632 1 2 cbr 1000 ------- 2 1.0 2.0 102 106
r 0.2644 1 2 cbr 1000 ------- 2 1.0 2.0 96 98
+ 0.2648 1 2 cbr 1000 ------- 2 1.0 2.0 103 107
- 0.2648 1 2 cbr 1000 ------- 2 1.0 2.0 103 107
r 0.266 1 2 cbr 1000 ------- 2 1.0 2.0 97 99
+ 0.2664 1 2 cbr 1000 ------- 2 1.0 2.0 104 108
- 0.2664 1 2 cbr 1000 ------- 2 1.0 2.0 104 108
r 0.2676 1 2 cbr 1000 ------- 2 1.0 2.0 98 100
+ 0.268 1 2 cbr 1000 ------- 2 1.0 2.0 105 109
- 0.268 1 2 cbr 1000 ------- 2 1.0 2.0 105 109
r 0.2692 1 2 cbr 1000 ------- 2 1.0 2.0 99 101
+ 0.2696 1 2 cbr 1000 ------- 2 1.0 2.0 106 110
- 0.2696 1 2 cbr 1000 ------- 2 1.0 2.0 106 110
r 0.2708 1 2 cbr 1000 ------- 2 1.0 2.0 100 102
r 0.271024 0 1 tcp 1040 ------- 1 0.0 3.0 1 103
+ 0.271024 1 2 tcp 1040 ------- 1 0.0 3.0 1 103
- 0.271024 1 2 tcp 1040 ------- 1 0.0 3.0 1 103
+ 0.2712 1 2 cbr 1000 ------- 2 1.0 2.0 107 111
r 0.271856 0 1 tcp 1040 ------- 1 0.0 3.0 2 104
+ 0.271856 1 2 tcp 1040 ------- 1 0.0 3.0 2 104
- 0.271856 1 2 cbr 1000 ------- 2 1.0 2.0 107 111
r 0.2724 1 2 cbr 1000 ------- 2 1.0 2.0 101 105
- 0.272656 1 2 tcp 1040 ------- 1 0.0 3.0 2 104
+ 0.2728 1 2 cbr 1000 ------- 2 1.0 2.0 108 112
- 0.273488 1 2 cbr 1000 ------- 2 1.0 2.0 108 112
r 0.274 1 2 cbr 1000 ------- 2 1.0 2.0 102 106
+ 0.2744 1 2 cbr 1000 ------- 2 1.0 2.0 109 113
- 0.2744 1 2 cbr 1000 ------- 2 1.0 2.0 109 113
r 0.2756 1 2 cbr 1000 ------- 2 1.0 2.0 103 107
+ 0.276 1 2 cbr 1000 ------- 2 1.0 2.0 110 114
- 0.276 1 2 cbr 1000 ------- 2 1.0 2.0 110 114
r 0.2772 1 2 cbr 1000 ------- 2 1.0 2.0 104 108
+ 0.2776 1 2 cbr 1000 ------- 2 1.0 2.0 111 115
- 0.2776 1 2 cbr 1000 ------- 2 1.0 2.0 111 115
r 0.2788 1 2 cbr 1000 ------- 2 1.0 2.0 105 109
+ 0.2792 1 2 cbr 1000 ------- 2 1.0 2.0 112 116
- 0.2792 1 2 cbr 1000 ------- 2 1.0 2.0 112 116
r 0.2804 1 2 cbr 1000 ------- 2 1.0 2.0 106 110
+ 0.2808 1 2 cbr 1000 ------- 2 1.0 2.0 113 117
- 0.2808 1 2 cbr 1000 ------- 2 1.0 2.0 113 117
r 0.281856 1 2 tcp 1040 ------- 1 0.0 3.0 1 103
+ 0.281856 2 3 tcp 1040 ------- 1 0.0 3.0 1 103
- 0.281856 2 3 tcp 1040 ------- 1 0.0 3.0 1 103
+ 0.2824 1 2 cbr 1000 ------- 2 1.0 2.0 114 118
- 0.2824 1 2 cbr 1000 ------- 2 1.0 2.0 114 118
r 0.282656 1 2 cbr 1000 ------- 2 1.0 2.0 107 111
r 0.283488 1 2 tcp 1040 ------- 1 0.0 3.0 2 104
+ 0.283488 2 3 tcp 1040 ------- 1 0.0 3.0 2 104
- 0.283488 2 3 tcp 1040 ------- 1 0.0 3.0 2 104
+ 0.284 1 2 cbr 1000 ------- 2 1.0 2.0 115 119
- 0.284 1 2 cbr 1000 ------- 2 1.0 2.0 115 119
r 0.284288 1 2 cbr 1000 ------- 2 1.0 2.0 108 112
r 0.2852 1 2 cbr 1000 ------- 2 1.0 2.0 109 113
+ 0.2856 1 2 cbr 1000 ------- 2 1.0 2.0 116 120
- 0.2856 1 2 cbr 1000 ------- 2 1.0 2.0 116 120
r 0.2868 1 2 cbr 1000 ------- 2 1.0 2.0 110 114
+ 0.2872 1 2 cbr 1000 ------- 2 1.0 2.0 117 121
- 0.2872 1 2 cbr 1000 ------- 2 1.0 2.0 117 121
r 0.2884 1 2 cbr 1000 ------- 2 1.0 2.0 111 115
+ 0.2888 1 2 cbr 1000 ------- 2 1.0 2.0 118 122
- 0.2888 1 2 cbr 1000 ------- 2 1.0 2.0 118 122
r 0.29 1 2 cbr 1000 ------- 2 1.0 2.0 112 116
+ 0.2904 1 2 cbr 1000 ------- 2 1.0 2.0 119 123
- 0.2904 1 2 cbr 1000 ------- 2 1.0 2.0 119 123
r 0.2916 1 2 cbr 1000 ------- 2 1.0 2.0 113 117
+ 0.292 1 2 cbr 1000 ------- 2 1.0 2.0 120 124
- 0.292 1 2 cbr 1000 ------- 2 1.0 2.0 120 124
r 0.292688 2 3 tcp 1040 ------- 1 0.0 3.0 1 103
+ 0.292688 3 2 ack 40 ------- 1 3.0 0.0 1 125
- 0.292688 3 2 ack 40 ------- 1 3.0 0.0 1 125
r 0.2932 1 2 cbr 1000 ------- 2 1.0 2.0 114 118
+ 0.2936 1 2 cbr 1000 ------- 2 1.0 2.0 121 126
- 0.2936 1 2 cbr 1000 ------- 2 1.0 2.0 121 126
r 0.29432 2 3 tcp 1040 ------- 1 0.0 3.0 2 104
+ 0.29432 3 2 ack 40 ------- 1 3.0 0.0 2 127
- 0.29432 3 2 ack 40 ------- 1 3.0 0.0 2 127
r 0.2948 1 2 cbr 1000 ------- 2 1.0 2.0 115 119
+ 0.2952 1 2 cbr 1000 ------- 2 1.0 2.0 122 128
- 0.2952 1 2 cbr 1000 ------- 2 1.0 2.0 122 128
r 0.2964 1 2 cbr 1000 ------- 2 1.0 2.0 116 120
+ 0.2968 1 2 cbr 1000 ------- 2 1.0 2.0 123 129
- 0.2968 1 2 cbr 1000 ------- 2 1.0 2.0 123 129
r 0.298 1 2 cbr 1000 ------- 2 1.0 2.0 117 121
+ 0.2984 1 2 cbr 1000 ------- 2 1.0 2.0 124 130
- 0.2984 1 2 cbr 1000 ------- 2 1.0 2.0 124 130
r 0.2996 1 2 cbr 1000 ------- 2 1.0 2.0 118 122
+ 0.3 1 2 cbr 1000 ------- 2 1.0 2.0 125 131
- 0.3 1 2 cbr 1000 ------- 2 1.0 2.0 125 131
r 0.3012 1 2 cbr 1000 ------- 2 1.0 2.0 119 123
+ 0.3016 1 2 cbr 1000 ------- 2 1.0 2.0 126 132
- 0.3016 1 2 cbr 1000 ------- 2 1.0 2.0 126 132
r 0.30272 3 2 ack 40 ------- 1 3.0 0.0 1 125
+ 0.30272 2 1 ack 40 ------- 1 3.0 0.0 1 125
- 0.30272 2 1 ack 40 ------- 1 3.0 0.0 1 125
r 0.3028 1 2 cbr 1000 ------- 2 1.0 2.0 120 124
+ 0.3032 1 2 cbr 1000 ------- 2 1.0 2.0 127 133
- 0.3032 1 2 cbr 1000 ------- 2 1.0 2.0 127 133
r 0.304352 3 2 ack 40 ------- 1 3.0 0.0 2 127
+ 0.304352 2 1 ack 40 ------- 1 3.0 0.0 2 127
- 0.304352 2 1 ack 40 ------- 1 3.0 0.0 2 127
r 0.3044 1 2 cbr 1000 ------- 2 1.0 2.0 121 126
+ 0.3048 1 2 cbr 1000 ------- 2 1.0 2.0 128 134
- 0.3048 1 2 cbr 1000 ------- 2 1.0 2.0 128 134
r 0.306 1 2 cbr 1000 ------- 2 1.0 2.0 122 128
+ 0.3064 1 2 cbr 1000 ------- 2 1.0 2.0 129 135
- 0.3064 1 2 cbr 1000 ------- 2 1.0 2.0 129 135
r 0.3076 1 2 cbr 1000 ------- 2 1.0 2.0 123 129
+ 0.308 1 2 cbr 1000 ------- 2 1.0 2.0 130 136
- 0.308 1 2 cbr 1000 ------- 2 1.0 2.0 130 136
r 0.3092 1 2 cbr 1000 ------- 2 1.0 2.0 124 130
+ 0.3096 1 2 cbr 1000 ------- 2 1.0 2.0 131 137
- 0.3096 1 2 cbr 1000 ------- 2 1.0 2.0 131 137
r 0.3108 1 2 cbr 1000 ------- 2 1.0 2.0 125 131
+ 0.3112 1 2 cbr 1000 ------- 2 1.0 2.0 132 138
- 0.3112 1 2 cbr 1000 ------- 2 1.0 2.0 132 138
r 0.3124 1 2 cbr 1000 ------- 2 1.0 2.0 126 132
r 0.312752 2 1 ack 40 ------- 1 3.0 0.0 1 125
+ 0.312752 1 0 ack 40 ------- 1 3.0 0.0 1 125
- 0.312752 1 0 ack 40 ------- 1 3.0 0.0 1 125
+ 0.3128 1 2 cbr 1000 ------- 2 1.0 2.0 133 139
- 0.3128 1 2 cbr 1000 ------- 2 1.0 2.0 133 139
r 0.314 1 2 cbr 1000 ------- 2 1.0 2.0 127 133
r 0.314384 2 1 ack 40 ------- 1 3.0 0.0 2 127
+ 0.314384 1 0 ack 40 ------- 1 3.0 0.0 2 127
- 0.314384 1 0 ack 40 ------- 1 3.0 0.0 2 127
+ 0.3144 1 2 cbr 1000 ------- 2 1.0 2.0 134 140
- 0.3144 1 2 cbr 1000 ------- 2 1.0 2.0 134 140
r 0.3156 1 2 cbr 1000 ------- 2 1.0 2.0 128 134
+ 0.316 1 2 cbr 1000 ------- 2 1.0 2.0 135 141
- 0.316 1 2 cbr 1000 ------- 2 1.0 2.0 135 141
r 0.3172 1 2 cbr 1000 ------- 2 1.0 2.0 129 135
+ 0.3176 1 2 cbr 1000 ------- 2 1.0 2.0 136 142
- 0.3176 1 2 cbr 1000 ------- 2 1.0 2.0 136 142
r 0.3188 1 2 cbr 1000 ------- 2 1.0 2.0 130 136
+ 0.3192 1 2 cbr 1000 ------- 2 1.0 2.0 137 143
- 0.3192 1 2 cbr 1000 ------- 2 1.0 2.0 137 143
r 0.3204 1 2 cbr 1000 ------- 2 1.0 2.0 131 137
+ 0.3208 1 2 cbr 1000 ------- 2 1.0 2.0 138 144
- 0.3208 1 2 cbr 1000 ------- 2 1.0 2.0 138 144
r 0.322 1 2 cbr 1000 ------- 2 1.0 2.0 132 138
+ 0.3224 1 2 cbr 1000 ------- 2 1.0 2.0 139 145
- 0.3224 1 2 cbr 1000 ------- 2 1.0 2.0 139 145
r 0.322784 1 0 ack 40 ------- 1 3.0 0.0 1 125
+ 0.322784 0 1 tcp 1040 ------- 1 0.0 3.0 3 146
- 0.322784 0 1 tcp 1040 ------- 1 0.0 3.0 3 146
+ 0.322784 0 1 tcp 1040 ------- 1 0.0 3.0 4 147
r 0.3236 1 2 cbr 1000 ------- 2 1.0 2.0 133 139
- 0.323616 0 1 tcp 1040 ------- 1 0.0 3.0 4 147
+ 0.324 1 2 cbr 1000 ------- 2 1.0 2.0 140 148
- 0.324 1 2 cbr 1000 ------- 2 1.0 2.0 140 148
r 0.324416 1 0 ack 40 ------- 1 3.0 0.0 2 127
+ 0.324416 0 1 tcp 1040 ------- 1 0.0 3.0 5 149
+ 0.324416 0 1 tcp 1040 ------- 1 0.0 3.0 6 150
- 0.324448 0 1 tcp 1040 ------- 1 0.0 3.0 5 149
r 0.3252 1 2 cbr 1000 ------- 2 1.0 2.0 134 140
- 0.32528 0 1 tcp 1040 ------- 1 0.0 3.0 6 150
+ 0.3256 1 2 cbr 1000 ------- 2 1.0 2.0 141 151
- 0.3256 1 2 cbr 1000 ------- 2 1.0 2.0 141 151
r 0.3268 1 2 cbr 1000 ------- 2 1.0 2.0 135 141
+ 0.3272 1 2 cbr 1000 ------- 2 1.0 2.0 142 152
- 0.3272 1 2 cbr 1000 ------- 2 1.0 2.0 142 152
r 0.3284 1 2 cbr 1000 ------- 2 1.0 2.0 136 142
+ 0.3288 1 2 cbr 1000 ------- 2 1.0 2.0 143 153
- 0.3288 1 2 cbr 1000 ------- 2 1.0 2.0 143 153
r 0.33 1 2 cbr 1000 ------- 2 1.0 2.0 137 143
+ 0.3304 1 2 cbr 1000 ------- 2 1.0 2.0 144 154
- 0.3304 1 2 cbr 1000 ------- 2 1.0 2.0 144 154
r 0.3316 1 2 cbr 1000 ------- 2 1.0 2.0 138 144
+ 0.332 1 2 cbr 1000 ------- 2 1.0 2.0 145 155
- 0.332 1 2 cbr 1000 ------- 2 1.0 2.0 145 155
r 0.3332 1 2 cbr 1000 ------- 2 1.0 2.0 139 145
+ 0.3336 1 2 cbr 1000 ------- 2 1.0 2.0 146 156
- 0.3336 1 2 cbr 1000 ------- 2 1.0 2.0 146 156
r 0.333616 0 1 tcp 1040 ------- 1 0.0 3.0 3 146
+ 0.333616 1 2 tcp 1040 ------- 1 0.0 3.0 3 146
- 0.3344 1 2 tcp 1040 ------- 1 0.0 3.0 3 146
r 0.334448 0 1 tcp 1040 ------- 1 0.0 3.0 4 147
+ 0.334448 1 2 tcp 1040 ------- 1 0.0 3.0 4 147
r 0.3348 1 2 cbr 1000 ------- 2 1.0 2.0 140 148
+ 0.3352 1 2 cbr 1000 ------- 2 1.0 2.0 147 157
- 0.335232 1 2 tcp 1040 ------- 1 0.0 3.0 4 147
r 0.33528 0 1 tcp 1040 ------- 1 0.0 3.0 5 149
+ 0.33528 1 2 tcp 1040 ------- 1 0.0 3.0 5 149
- 0.336064 1 2 cbr 1000 ------- 2 1.0 2.0 147 157
r 0.336112 0 1 tcp 1040 ------- 1 0.0 3.0 6 150
+ 0.336112 1 2 tcp 1040 ------- 1 0.0 3.0 6 150
r 0.3364 1 2 cbr 1000 ------- 2 1.0 2.0 141 151
+ 0.3368 1 2 cbr 1000 ------- 2 1.0 2.0 148 158
- 0.336864 1 2 tcp 1040 ------- 1 0.0 3.0 5 149
- 0.337696 1 2 tcp 1040 ------- 1 0.0 3.0 6 150
r 0.338 1 2 cbr 1000 ------- 2 1.0 2.0 142 152
+ 0.3384 1 2 cbr 1000 ------- 2 1.0 2.0 149 159
- 0.338528 1 2 cbr 1000 ------- 2 1.0 2.0 148 158
- 0.339328 1 2 cbr 1000 ------- 2 1.0 2.0 149 159
r 0.3396 1 2 cbr 1000 ------- 2 1.0 2.0 143 153
+ 0.34 1 2 cbr 1000 ------- 2 1.0 2.0 150 160
- 0.340128 1 2 cbr 1000 ------- 2 1.0 2.0 150 160
r 0.3412 1 2 cbr 1000 ------- 2 1.0 2.0 144 154
+ 0.3416 1 2 cbr 1000 ------- 2 1.0 2.0 151 161
- 0.3416 1 2 cbr 1000 ------- 2 1.0 2.0 151 161
r 0.3428 1 2 cbr 1000 ------- 2 1.0 2.0 145 155
+ 0.3432 1 2 cbr 1000 ------- 2 1.0 2.0 152 162
- 0.3432 1 2 cbr 1000 ------- 2 1.0 2.0 152 162
r 0.3444 1 2 cbr 1000 ------- 2 1.0 2.0 146 156
+ 0.3448 1 2 cbr 1000 ------- 2 1.0 2.0 153 163
- 0.3448 1 2 cbr 1000 ------- 2 1.0 2.0 153 163
r 0.345232 1 2 tcp 1040 ------- 1 0.0 3.0 3 146
+ 0.345232 2 3 tcp 1040 ------- 1 0.0 3.0 3 146
- 0.345232 2 3 tcp 1040 ------- 1 0.0 3.0 3 146
r 0.346064 1 2 tcp 1040 ------- 1 0.0 3.0 4 147
+ 0.346064 2 3 tcp 1040 ------- 1 0.0 3.0 4 147
- 0.346064 2 3 tcp 1040 ------- 1 0.0 3.0 4 147
+ 0.3464 1 2 cbr 1000 ------- 2 1.0 2.0 154 164
- 0.3464 1 2 cbr 1000 ------- 2 1.0 2.0 154 164
r 0.346864 1 2 cbr 1000 ------- 2 1.0 2.0 147 157
r 0.347696 1 2 tcp 1040 ------- 1 0.0 3.0 5 149
+ 0.347696 2 3 tcp 1040 ------- 1 0.0 3.0 5 149
- 0.347696 2 3 tcp 1040 ------- 1 0.0 3.0 5 149
+ 0.348 1 2 cbr 1000 ------- 2 1.0 2.0 155 165
- 0.348 1 2 cbr 1000 ------- 2 1.0 2.0 155 165
r 0.348528 1 2 tcp 1040 ------- 1 0.0 3.0 6 150
+ 0.348528 2 3 tcp 1040 ------- 1 0.0 3.0 6 150
- 0.348528 2 3 tcp 1040 ------- 1 0.0 3.0 6 150
r 0.349328 1 2 cbr 1000 ------- 2 1.0 2.0 148 158
+ 0.3496 1 2 cbr 1000 ------- 2 1.0 2.0 156 166
- 0.3496 1 2 cbr 1000 ------- 2 1.0 2.0 156 166
r 0.350128 1 2 cbr 1000 ------- 2 1.0 2.0 149 159
r 0.350928 1 2 cbr 1000 ------- 2 1.0 2.0 150 160
+ 0.3512 1 2 cbr 1000 ------- 2 1.0 2.0 157 167
- 0.3512 1 2 cbr 1000 ------- 2 1.0 2.0 157 167
r 0.3524 1 2 cbr 1000 ------- 2 1.0 2.0 151 161
+ 0.3528 1 2 cbr 1000 ------- 2 1.0 2.0 158 168
- 0.3528 1 2 cbr 1000 ------- 2 1.0 2.0 158 168
r 0.354 1 2 cbr 1000 ------- 2 1.0 2.0 152 162
+ 0.3544 1 2 cbr 1000 ------- 2 1.0 2.0 159 169
- 0.3544 1 2 cbr 1000 ------- 2 1.0 2.0 159 169
r 0.3556 1 2 cbr 1000 ------- 2 1.0 2.0 153 163
+ 0.356 1 2 cbr 1000 ------- 2 1.0 2.0 160 170
- 0.356 1 2 cbr 1000 ------- 2 1.0 2.0 160 170
r 0.356064 2 3 tcp 1040 ------- 1 0.0 3.0 3 146
+ 0.356064 3 2 ack 40 ------- 1 3.0 0.0 3 171
- 0.356064 3 2 ack 40 ------- 1 3.0 0.0 3 171
r 0.356896 2 3 tcp 1040 ------- 1 0.0 3.0 4 147
+ 0.356896 3 2 ack 40 ------- 1 3.0 0.0 4 172
- 0.356896 3 2 ack 40 ------- 1 3.0 0.0 4 172
r 0.3572 1 2 cbr 1000 ------- 2 1.0 2.0 154 164
+ 0.3576 1 2 cbr 1000 ------- 2 1.0 2.0 161 173
- 0.3576 1 2 cbr 1000 ------- 2 1.0 2.0 161 173
r 0.358528 2 3 tcp 1040 ------- 1 0.0 3.0 5 149
+ 0.358528 3 2 ack 40 ------- 1 3.0 0.0 5 174
- 0.358528 3 2 ack 40 ------- 1 3.0 0.0 5 174
r 0.3588 1 2 cbr 1000 ------- 2 1.0 2.0 155 165
+ 0.3592 1 2 cbr 1000 ------- 2 1.0 2.0 162 175
- 0.3592 1 2 cbr 1000 ------- 2 1.0 2.0 162 175
r 0.35936 2 3 tcp 1040 ------- 1 0.0 3.0 6 150
+ 0.35936 3 2 ack 40 ------- 1 3.0 0.0 6 176
- 0.35936 3 2 ack 40 ------- 1 3.0 0.0 6 176
r 0.3604 1 2 cbr 1000 ------- 2 1.0 2.0 156 166
+ 0.3608 1 2 cbr 1000 ------- 2 1.0 2.0 163 177
- 0.3608 1 2 cbr 1000 ------- 2 1.0 2.0 163 177
r 0.362 1 2 cbr 1000 ------- 2 1.0 2.0 157 167
+ 0.3624 1 2 cbr 1000 ------- 2 1.0 2.0 164 178
- 0.3624 1 2 cbr 1000 ------- 2 1.0 2.0 164 178
r 0.3636 1 2 cbr 1000 ------- 2 1.0 2.0 158 168
+ 0.364 1 2 cbr 1000 ------- 2 1.0 2.0 165 179
- 0.364 1 2 cbr 1000 ------- 2 1.0 2.0 165 179
r 0.3652 1 2 cbr 1000 ------- 2 1.0 2.0 159 169
+ 0.3656 1 2 cbr 1000 ------- 2 1.0 2.0 166 180
- 0.3656 1 2 cbr 1000 ------- 2 1.0 2.0 166 180
r 0.366096 3 2 ack 40 ------- 1 3.0 0.0 3 171
+ 0.366096 2 1 ack 40 ------- 1 3.0 0.0 3 171
- 0.366096 2 1 ack 40 ------- 1 3.0 0.0 3 171
r 0.3668 1 2 cbr 1000 ------- 2 1.0 2.0 160 170
r 0.366928 3 2 ack 40 ------- 1 3.0 0.0 4 172
+ 0.366928 2 1 ack 40 ------- 1 3.0 0.0 4 172
- 0.366928 2 1 ack 40 ------- 1 3.0 0.0 4 172
+ 0.3672 1 2 cbr 1000 ------- 2 1.0 2.0 167 181
- 0.3672 1 2 cbr 1000 ------- 2 1.0 2.0 167 181
r 0.3684 1 2 cbr 1000 ------- 2 1.0 2.0 161 173
r 0.36856 3 2 ack 40 ------- 1 3.0 0.0 5 174
+ 0.36856 2 1 ack 40 ------- 1 3.0 0.0 5 174
- 0.36856 2 1 ack 40 ------- 1 3.0 0.0 5 174
+ 0.3688 1 2 cbr 1000 ------- 2 1.0 2.0 168 182
- 0.3688 1 2 cbr 1000 ------- 2 1.0 2.0 168 182
r 0.369392 3 2 ack 40 ------- 1 3.0 0.0 6 176
+ 0.369392 2 1 ack 40 ------- 1 3.0 0.0 6 176
- 0.369392 2 1 ack 40 ------- 1 3.0 0.0 6 176
r 0.37 1 2 cbr 1000 ------- 2 1.0 2.0 162 175
+ 0.3704 1 2 cbr 1000 ------- 2 1.0 2.0 169 183
- 0.3704 1 2 cbr 1000 ------- 2 1.0 2.0 169 183
r 0.3716 1 2 cbr 1000 ------- 2 1.0 2.0 163 177
+ 0.372 1 2 cbr 1000 ------- 2 1.0 2.0 170 184
- 0.372 1 2 cbr 1000 ------- 2 1.0 2.0 170 184
r 0.3732 1 2 cbr 1000 ------- 2 1.0 2.0 164 178
+ 0.3736 1 2 cbr 1000 ------- 2 1.0 2.0 171 185
- 0.3736 1 2 cbr 1000 ------- 2 1.0 2.0 171 185
r 0.3748 1 2 cbr 1000 ------- 2 1.0 2.0 165 179
+ 0.3752 1 2 cbr 1000 ------- 2 1.0 2.0 172 186
- 0.3752 1 2 cbr 1000 ------- 2 1.0 2.0 172 186
r 0.376128 2 1 ack 40 ------- 1 3.0 0.0 3 171
+ 0.376128 1 0 ack 40 ------- 1 3.0 0.0 3 171
- 0.376128 1 0 ack 40 ------- 1 3.0 0.0 3 171
r 0.3764 1 2 cbr 1000 ------- 2 1.0 2.0 166 180
+ 0.3768 1 2 cbr 1000 ------- 2 1.0 2.0 173 187
- 0.3768 1 2 cbr 1000 ------- 2 1.0 2.0 173 187
r 0.37696 2 1 ack 40 ------- 1 3.0 0.0 4 172
+ 0.37696 1 0 ack 40 ------- 1 3.0 0.0 4 172
- 0.37696 1 0 ack 40 ------- 1 3.0 0.0 4 172
r 0.378 1 2 cbr 1000 ------- 2 1.0 2.0 167 181
+ 0.3784 1 2 cbr 1000 ------- 2 1.0 2.0 174 188
- 0.3784 1 2 cbr 1000 ------- 2 1.0 2.0 174 188
r 0.378592 2 1 ack 40 ------- 1 3.0 0.0 5 174
+ 0.378592 1 0 ack 40 ------- 1 3.0 0.0 5 174
- 0.378592 1 0 ack 40 ------- 1 3.0 0.0 5 174
r 0.379424 2 1 ack 40 ------- 1 3.0 0.0 6 176
+ 0.379424 1 0 ack 40 ------- 1 3.0 0.0 6 176
- 0.379424 1 0 ack 40 ------- 1 3.0 0.0 6 176
r 0.3796 1 2 cbr 1000 ------- 2 1.0 2.0 168 182
+ 0.38 1 2 cbr 1000 ------- 2 1.0 2.0 175 189
- 0.38 1 2 cbr 1000 ------- 2 1.0 2.0 175 189
r 0.3812 1 2 cbr 1000 ------- 2 1.0 2.0 169 183