+ 0.1 1 2 cbr 1000 ------- 2 1.0 2.0 0 0
- 0.1 1 2 cbr 1000 ------- 2 1.0 2.0 0 0
+ 0.104 1 2 cbr 1000 ------- 2 1.0 2.0 1 1
- 0.104 1 2 cbr 1000 ------- 2 1.0 2.0 1 1
+ 0.108 1 2 cbr 1000 ------- 2 1.0 2.0 2 2
- 0.108 1 2 cbr 1000 ------- 2 1.0 2.0 2 2
r 0.1108 1 2 cbr 1000 ------- 2 1.0 2.0 0 0
+ 0.112 1 2 cbr 1000 ------- 2 1.0 2.0 3 3
- 0.112 1 2 cbr 1000 ------- 2 1.0 2.0 3 3
r 0.1148 1 2 cbr 1000 ------- 2 1.0 2.0 1 1
+ 0.116 1 2 cbr 1000 ------- 2 1.0 2.0 4 4
- 0.116 1 2 cbr 1000 ------- 2 1.0 2.0 4 4
r 0.1188 1 2 cbr 1000 ------- 2 1.0 2.0 2 2
+ 0.12 1 2 cbr 1000 ------- 2 1.0 2.0 5 5
- 0.12 1 2 cbr 1000 ------- 2 1.0 2.0 5 5
r 0.1228 1 2 cbr 1000 ------- 2 1.0 2.0 3 3
+ 0.124 1 2 cbr 1000 ------- 2 1.0 2.0 6 6
- 0.124 1 2 cbr 1000 ------- 2 1.0 2.0 6 6
r 0.1268 1 2 cbr 1000 ------- 2 1.0 2.0 4 4
+ 0.128 1 2 cbr 1000 ------- 2 1.0 2.0 7 7
- 0.128 1 2 cbr 1000 ------- 2 1.0 2.0 7 7
r 0.1308 1 2 cbr 1000 ------- 2 1.0 2.0 5 5
+ 0.132 1 2 cbr 1000 ------- 2 1.0 2.0 8 8
- 0.132 1 2 cbr 1000 ------- 2 1.0 2.0 8 8
r 0.1348 1 2 cbr 1000 ------- 2 1.0 2.0 6 6
+ 0.136 1 2 cbr 1000 ------- 2 1.0 2.0 9 9
- 0.136 1 2 cbr 1000 ------- 2 1.0 2.0 9 9
r 0.1388 1 2 cbr 1000 ------- 2 1.0 2.0 7 7
+ 0.14 1 2 cbr 1000 ------- 2 1.0 2.0 10 10
- 0.14 1 2 cbr 1000 ------- 2 1.0 2.0 10 10
r 0.1428 1 2 cbr 1000 ------- 2 1.0 2.0 8 8
+ 0.144 1 2 cbr 1000 ------- 2 1.0 2.0 11 11
- 0.144 1 2 cbr 1000 ------- 2 1.0 2.0 11 11
r 0.1468 1 2 cbr 1000 ------- 2 1.0 2.0 9 9
+ 0.148 1 2 cbr 1000 ------- 2 1.0 2.0 12 12
- 0.148 1 2 cbr 1000 ------- 2 1.0 2.0 12 12
r 0.1508 1 2 cbr 1000 ------- 2 1.0 2.0 10 10
+ 0.152 1 2 cbr 1000 ------- 2 1.0 2.0 13 13
- 0.152 1 2 cbr 1000 ------- 2 1.0 2.0 13 13
r 0.1548 1 2 cbr 1000 ------- 2 1.0 2.0 11 11
+ 0.156 1 2 cbr 1000 ------- 2 1.0 2.0 14 14
- 0.156 1 2 cbr 1000 ------- 2 1.0 2.0 14 14
r 0.1588 1 2 cbr 1000 ------- 2 1.0 2.0 12 12
+ 0.16 1 2 cbr 1000 ------- 2 1.0 2.0 15 15
- 0.16 1 2 cbr 1000 ------- 2 1.0 2.0 15 15
r 0.1628 1 2 cbr 1000 ------- 2 1.0 2.0 13 13
+ 0.164 1 2 cbr 1000 ------- 2 1.0 2.0 16 16
- 0.164 1 2 cbr 1000 ------- 2 1.0 2.0 16 16
r 0.1668 1 2 cbr 1000 ------- 2 1.0 2.0 14 14
+ 0.168 1 2 cbr 1000 ------- 2 1.0 2.0 17 17
- 0.168 1 2 cbr 1000 ------- 2 1.0 2.0 17 17
r 0.1708 1 2 cbr 1000 ------- 2 1.0 2.0 15 15
+ 0.172 1 2 cbr 1000 ------- 2 1.0 2.0 18 18
- 0.172 1 2 cbr 1000 ------- 2 1.0 2.0 18 18
r 0.1748 1 2 cbr 1000 ------- 2 1.0 2.0 16 16
+ 0.176 1 2 cbr 1000 ------- 2 1.0 2.0 19 19
- 0.176 1 2 cbr 1000 ------- 2 1.0 2.0 19 19
r 0.1788 1 2 cbr 1000 ------- 2 1.0 2.0 17 17
+ 0.18 1 2 cbr 1000 ------- 2 1.0 2.0 20 20
- 0.18 1 2 cbr 1000 ------- 2 1.0 2.0 20 20
r 0.1828 1 2 cbr 1000 ------- 2 1.0 2.0 18 18
+ 0.184 1 2 cbr 1000 ------- 2 1.0 2.0 21 21
- 0.184 1 2 cbr 1000 ------- 2 1.0 2.0 21 21
r 0.1868 1 2 cbr 1000 ------- 2 1.0 2.0 19 19
+ 0.188 1 2 cbr 1000 ------- 2 1.0 2.0 22 22
- 0.188 1 2 cbr 1000 ------- 2 1.0 2.0 22 22
r 0.1908 1 2 cbr 1000 ------- 2 1.0 2.0 20 20
+ 0.192 1 2 cbr 1000 ------- 2 1.0 2.0 23 23
- 0.192 1 2 cbr 1000 ------- 2 1.0 2.0 23 23
r 0.1948 1 2 cbr 1000 ------- 2 1.0 2.0 21 21
+ 0.196 1 2 cbr 1000 ------- 2 1.0 2.0 24 24
- 0.196 1 2 cbr 1000 ------- 2 1.0 2.0 24 24
r 0.1988 1 2 cbr 1000 ------- 2 1.0 2.0 22 22
+ 0.2 0 1 tcp 40 ------- 1 0.0 3.0 0 25
- 0.2 0 1 tcp 40 ------- 1 0.0 3.0 0 25
+ 0.2 1 2 cbr 1000 ------- 2 1.0 2.0 25 26
- 0.2 1 2 cbr 1000 ------- 2 1.0 2.0 25 26
r 0.2028 1 2 cbr 1000 ------- 2 1.0 2.0 23 23
+ 0.204 1 2 cbr 1000 ------- 2 1.0 2.0 26 27
- 0.204 1 2 cbr 1000 ------- 2 1.0 2.0 26 27
r 0.2068 1 2 cbr 1000 ------- 2 1.0 2.0 24 24
+ 0.208 1 2 cbr 1000 ------- 2 1.0 2.0 27 28
- 0.208 1 2 cbr 1000 ------- 2 1.0 2.0 27 28
r 0.210032 0 1 tcp 40 ------- 1 0.0 3.0 0 25
+ 0.210032 1 2 tcp 40 ------- 1 0.0 3.0 0 25
- 0.210032 1 2 tcp 40 ------- 1 0.0 3.0 0 25
r 0.2108 1 2 cbr 1000 ------- 2 1.0 2.0 25 26
+ 0.212 1 2 cbr 1000 ------- 2 1.0 2.0 28 29
- 0.212 1 2 cbr 1000 ------- 2 1.0 2.0 28 29
r 0.2148 1 2 cbr 1000 ------- 2 1.0 2.0 26 27
+ 0.216 1 2 cbr 1000 ------- 2 1.0 2.0 29 30
- 0.216 1 2 cbr 1000 ------- 2 1.0 2.0 29 30
r 0.2188 1 2 cbr 1000 ------- 2 1.0 2.0 27 28
+ 0.22 1 2 cbr 1000 ------- 2 1.0 2.0 30 31
- 0.22 1 2 cbr 1000 ------- 2 1.0 2.0 30 31
r 0.220064 1 2 tcp 40 ------- 1 0.0 3.0 0 25
+ 0.220064 2 3 tcp 40 ------- 1 0.0 3.0 0 25
- 0.220064 2 3 tcp 40 ------- 1 0.0 3.0 0 25
r 0.2228 1 2 cbr 1000 ------- 2 1.0 2.0 28 29
+ 0.224 1 2 cbr 1000 ------- 2 1.0 2.0 31 32
- 0.224 1 2 cbr 1000 ------- 2 1.0 2.0 31 32
r 0.2268 1 2 cbr 1000 ------- 2 1.0 2.0 29 30
+ 0.228 1 2 cbr 1000 ------- 2 1.0 2.0 32 33
- 0.228 1 2 cbr 1000 ------- 2 1.0 2.0 32 33
r 0.230096 2 3 tcp 40 ------- 1 0.0 3.0 0 25
+ 0.230096 3 2 ack 40 ------- 1 3.0 0.0 0 34
- 0.230096 3 2 ack 40 ------- 1 3.0 0.0 0 34
r 0.2308 1 2 cbr 1000 ------- 2 1.0 2.0 30 31
+ 0.232 1 2 cbr 1000 ------- 2 1.0 2.0 33 35
- 0.232 1 2 cbr 1000 ------- 2 1.0 2.0 33 35
r 0.2348 1 2 cbr 1000 ------- 2 1.0 2.0 31 32
+ 0.236 1 2 cbr 1000 ------- 2 1.0 2.0 34 36
- 0.236 1 2 cbr 1000 ------- 2 1.0 2.0 34 36
r 0.2388 1 2 cbr 1000 ------- 2 1.0 2.0 32 33
+ 0.24 1 2 cbr 1000 ------- 2 1.0 2.0 35 37
- 0.24 1 2 cbr 1000 ------- 2 1.0 2.0 35 37
r 0.240128 3 2 ack 40 ------- 1 3.0 0.0 0 34
+ 0.240128 2 1 ack 40 ------- 1 3.0 0.0 0 34
- 0.240128 2 1 ack 40 ------- 1 3.0 0.0 0 34
r 0.2428 1 2 cbr 1000 ------- 2 1.0 2.0 33 35
+ 0.244 1 2 cbr 1000 ------- 2 1.0 2.0 36 38
- 0.244 1 2 cbr 1000 ------- 2 1.0 2.0 36 38
r 0.2468 1 2 cbr 1000 ------- 2 1.0 2.0 34 36
+ 0.248 1 2 cbr 1000 ------- 2 1.0 2.0 37 39
- 0.248 1 2 cbr 1000 ------- 2 1.0 2.0 37 39
r 0.25016 2 1 ack 40 ------- 1 3.0 0.0 0 34
+ 0.25016 1 0 ack 40 ------- 1 3.0 0.0 0 34
- 0.25016 1 0 ack 40 ------- 1 3.0 0.0 0 34
r 0.2508 1 2 cbr 1000 ------- 2 1.0 2.0 35 37
+ 0.252 1 2 cbr 1000 ------- 2 1.0 2.0 38 40
- 0.252 1 2 cbr 1000 ------- 2 1.0 2.0 38 40
r 0.2548 1 2 cbr 1000 ------- 2 1.0 2.0 36 38
+ 0.256 1 2 cbr 1000 ------- 2 1.0 2.0 39 41
- 0.256 1 2 cbr 1000 ------- 2 1.0 2.0 39 41
r 0.2588 1 2 cbr 1000 ------- 2 1.0 2.0 37 39
+ 0.26 1 2 cbr 1000 ------- 2 1.0 2.0 40 42
- 0.26 1 2 cbr 1000 ------- 2 1.0 2.0 40 42
r 0.260192 1 0 ack 40 ------- 1 3.0 0.0 0 34
+ 0.260192 0 1 tcp 1040 ------- 1 0.0 3.0 1 43
- 0.260192 0 1 tcp 1040 ------- 1 0.0 3.0 1 43
+ 0.260192 0 1 tcp 1040 ------- 1 0.0 3.0 2 44
- 0.261024 0 1 tcp 1040 ------- 1 0.0 3.0 2 44
r 0.2628 1 2 cbr 1000 ------- 2 1.0 2.0 38 40
+ 0.264 1 2 cbr 1000 ------- 2 1.0 2.0 41 45
- 0.264 1 2 cbr 1000 ------- 2 1.0 2.0 41 45
r 0.2668 1 2 cbr 1000 ------- 2 1.0 2.0 39 41
+ 0.268 1 2 cbr 1000 ------- 2 1.0 2.0 42 46
- 0.268 1 2 cbr 1000 ------- 2 1.0 2.0 42 46
r 0.2708 1 2 cbr 1000 ------- 2 1.0 2.0 40 42
r 0.271024 0 1 tcp 1040 ------- 1 0.0 3.0 1 43
+ 0.271024 1 2 tcp 1040 ------- 1 0.0 3.0 1 43
- 0.271024 1 2 tcp 1040 ------- 1 0.0 3.0 1 43
r 0.271856 0 1 tcp 1040 ------- 1 0.0 3.0 2 44
+ 0.271856 1 2 tcp 1040 ------- 1 0.0 3.0 2 44
- 0.271856 1 2 tcp 1040 ------- 1 0.0 3.0 2 44
+ 0.272 1 2 cbr 1000 ------- 2 1.0 2.0 43 47
- 0.272688 1 2 cbr 1000 ------- 2 1.0 2.0 43 47
r 0.2748 1 2 cbr 1000 ------- 2 1.0 2.0 41 45
+ 0.276 1 2 cbr 1000 ------- 2 1.0 2.0 44 48
- 0.276 1 2 cbr 1000 ------- 2 1.0 2.0 44 48
r 0.2788 1 2 cbr 1000 ------- 2 1.0 2.0 42 46
+ 0.28 1 2 cbr 1000 ------- 2 1.0 2.0 45 49
- 0.28 1 2 cbr 1000 ------- 2 1.0 2.0 45 49
r 0.281856 1 2 tcp 1040 ------- 1 0.0 3.0 1 43
+ 0.281856 2 3 tcp 1040 ------- 1 0.0 3.0 1 43
- 0.281856 2 3 tcp 1040 ------- 1 0.0 3.0 1 43
r 0.282688 1 2 tcp 1040 ------- 1 0.0 3.0 2 44
+ 0.282688 2 3 tcp 1040 ------- 1 0.0 3.0 2 44
- 0.282688 2 3 tcp 1040 ------- 1 0.0 3.0 2 44
r 0.283488 1 2 cbr 1000 ------- 2 1.0 2.0 43 47
+ 0.284 1 2 cbr 1000 ------- 2 1.0 2.0 46 50
- 0.284 1 2 cbr 1000 ------- 2 1.0 2.0 46 50
r 0.2868 1 2 cbr 1000 ------- 2 1.0 2.0 44 48
+ 0.288 1 2 cbr 1000 ------- 2 1.0 2.0 47 51
- 0.288 1 2 cbr 1000 ------- 2 1.0 2.0 47 51
r 0.2908 1 2 cbr 1000 ------- 2 1.0 2.0 45 49
+ 0.292 1 2 cbr 1000 ------- 2 1.0 2.0 48 52
- 0.292 1 2 cbr 1000 ------- 2 1.0 2.0 48 52
r 0.292688 2 3 tcp 1040 ------- 1 0.0 3.0 1 43
+ 0.292688 3 2 ack 40 ------- 1 3.0 0.0 1 53
- 0.292688 3 2 ack 40 ------- 1 3.0 0.0 1 53
r 0.29352 2 3 tcp 1040 ------- 1 0.0 3.0 2 44
+ 0.29352 3 2 ack 40 ------- 1 3.0 0.0 2 54
- 0.29352 3 2 ack 40 ------- 1 3.0 0.0 2 54
r 0.2948 1 2 cbr 1000 ------- 2 1.0 2.0 46 50
+ 0.296 1 2 cbr 1000 ------- 2 1.0 2.0 49 55
- 0.296 1 2 cbr 1000 ------- 2 1.0 2.0 49 55
r 0.2988 1 2 cbr 1000 ------- 2 1.0 2.0 47 51
+ 0.3 1 2 cbr 1000 ------- 2 1.0 2.0 50 56
- 0.3 1 2 cbr 1000 ------- 2 1.0 2.0 50 56
r 0.30272 3 2 ack 40 ------- 1 3.0 0.0 1 53
+ 0.30272 2 1 ack 40 ------- 1 3.0 0.0 1 53
- 0.30272 2 1 ack 40 ------- 1 3.0 0.0 1 53
r 0.3028 1 2 cbr 1000 ------- 2 1.0 2.0 48 52
r 0.303552 3 2 ack 40 ------- 1 3.0 0.0 2 54
+ 0.303552 2 1 ack 40 ------- 1 3.0 0.0 2 54
- 0.303552 2 1 ack 40 ------- 1 3.0 0.0 2 54
+ 0.304 1 2 cbr 1000 ------- 2 1.0 2.0 51 57
- 0.304 1 2 cbr 1000 ------- 2 1.0 2.0 51 57
r 0.3068 1 2 cbr 1000 ------- 2 1.0 2.0 49 55
+ 0.308 1 2 cbr 1000 ------- 2 1.0 2.0 52 58
- 0.308 1 2 cbr 1000 ------- 2 1.0 2.0 52 58
r 0.3108 1 2 cbr 1000 ------- 2 1.0 2.0 50 56
+ 0.312 1 2 cbr 1000 ------- 2 1.0 2.0 53 59
- 0.312 1 2 cbr 1000 ------- 2 1.0 2.0 53 59
r 0.312752 2 1 ack 40 ------- 1 3.0 0.0 1 53
+ 0.312752 1 0 ack 40 ------- 1 3.0 0.0 1 53
- 0.312752 1 0 ack 40 ------- 1 3.0 0.0 1 53
r 0.313584 2 1 ack 40 ------- 1 3.0 0.0 2 54
+ 0.313584 1 0 ack 40 ------- 1 3.0 0.0 2 54
- 0.313584 1 0 ack 40 ------- 1 3.0 0.0 2 54
r 0.3148 1 2 cbr 1000 ------- 2 1.0 2.0 51 57
+ 0.316 1 2 cbr 1000 ------- 2 1.0 2.0 54 60
- 0.316 1 2 cbr 1000 ------- 2 1.0 2.0 54 60
r 0.3188 1 2 cbr 1000 ------- 2 1.0 2.0 52 58
+ 0.32 1 2 cbr 1000 ------- 2 1.0 2.0 55 61
- 0.32 1 2 cbr 1000 ------- 2 1.0 2.0 55 61
r 0.322784 1 0 ack 40 ------- 1 3.0 0.0 1 53
+ 0.322784 0 1 tcp 1040 ------- 1 0.0 3.0 3 62
- 0.322784 0 1 tcp 1040 ------- 1 0.0 3.0 3 62
+ 0.322784 0 1 tcp 1040 ------- 1 0.0 3.0 4 63
r 0.3228 1 2 cbr 1000 ------- 2 1.0 2.0 53 59
r 0.323616 1 0 ack 40 ------- 1 3.0 0.0 2 54
+ 0.323616 0 1 tcp 1040 ------- 1 0.0 3.0 5 64
+ 0.323616 0 1 tcp 1040 ------- 1 0.0 3.0 6 65
- 0.323616 0 1 tcp 1040 ------- 1 0.0 3.0 4 63
+ 0.324 1 2 cbr 1000 ------- 2 1.0 2.0 56 66
- 0.324 1 2 cbr 1000 ------- 2 1.0 2.0 56 66
- 0.324448 0 1 tcp 1040 ------- 1 0.0 3.0 5 64
- 0.32528 0 1 tcp 1040 ------- 1 0.0 3.0 6 65
r 0.3268 1 2 cbr 1000 ------- 2 1.0 2.0 54 60
+ 0.328 1 2 cbr 1000 ------- 2 1.0 2.0 57 67
- 0.328 1 2 cbr 1000 ------- 2 1.0 2.0 57 67
r 0.3308 1 2 cbr 1000 ------- 2 1.0 2.0 55 61
+ 0.332 1 2 cbr 1000 ------- 2 1.0 2.0 58 68
- 0.332 1 2 cbr 1000 ------- 2 1.0 2.0 58 68
r 0.333616 0 1 tcp 1040 ------- 1 0.0 3.0 3 62
+ 0.333616 1 2 tcp 1040 ------- 1 0.0 3.0 3 62
- 0.333616 1 2 tcp 1040 ------- 1 0.0 3.0 3 62
r 0.334448 0 1 tcp 1040 ------- 1 0.0 3.0 4 63
+ 0.334448 1 2 tcp 1040 ------- 1 0.0 3.0 4 63
- 0.334448 1 2 tcp 1040 ------- 1 0.0 3.0 4 63
r 0.3348 1 2 cbr 1000 ------- 2 1.0 2.0 56 66
r 0.33528 0 1 tcp 1040 ------- 1 0.0 3.0 5 64
+ 0.33528 1 2 tcp 1040 ------- 1 0.0 3.0 5 64
- 0.33528 1 2 tcp 1040 ------- 1 0.0 3.0 5 64
+ 0.336 1 2 cbr 1000 ------- 2 1.0 2.0 59 69
r 0.336112 0 1 tcp 1040 ------- 1 0.0 3.0 6 65
+ 0.336112 1 2 tcp 1040 ------- 1 0.0 3.0 6 65
- 0.336112 1 2 cbr 1000 ------- 2 1.0 2.0 59 69
- 0.336912 1 2 tcp 1040 ------- 1 0.0 3.0 6 65
r 0.3388 1 2 cbr 1000 ------- 2 1.0 2.0 57 67
+ 0.34 1 2 cbr 1000 ------- 2 1.0 2.0 60 70
- 0.34 1 2 cbr 1000 ------- 2 1.0 2.0 60 70
r 0.3428 1 2 cbr 1000 ------- 2 1.0 2.0 58 68
+ 0.344 1 2 cbr 1000 ------- 2 1.0 2.0 61 71
- 0.344 1 2 cbr 1000 ------- 2 1.0 2.0 61 71
r 0.344448 1 2 tcp 1040 ------- 1 0.0 3.0 3 62
+ 0.344448 2 3 tcp 1040 ------- 1 0.0 3.0 3 62
- 0.344448 2 3 tcp 1040 ------- 1 0.0 3.0 3 62
r 0.34528 1 2 tcp 1040 ------- 1 0.0 3.0 4 63
+ 0.34528 2 3 tcp 1040 ------- 1 0.0 3.0 4 63
- 0.34528 2 3 tcp 1040 ------- 1 0.0 3.0 4 63
r 0.346112 1 2 tcp 1040 ------- 1 0.0 3.0 5 64
+ 0.346112 2 3 tcp 1040 ------- 1 0.0 3.0 5 64
- 0.346112 2 3 tcp 1040 ------- 1 0.0 3.0 5 64
r 0.346912 1 2 cbr 1000 ------- 2 1.0 2.0 59 69
r 0.347744 1 2 tcp 1040 ------- 1 0.0 3.0 6 65
+ 0.347744 2 3 tcp 1040 ------- 1 0.0 3.0 6 65
- 0.347744 2 3 tcp 1040 ------- 1 0.0 3.0 6 65
+ 0.348 1 2 cbr 1000 ------- 2 1.0 2.0 62 72
- 0.348 1 2 cbr 1000 ------- 2 1.0 2.0 62 72
r 0.3508 1 2 cbr 1000 ------- 2 1.0 2.0 60 70
+ 0.352 1 2 cbr 1000 ------- 2 1.0 2.0 63 73
- 0.352 1 2 cbr 1000 ------- 2 1.0 2.0 63 73
r 0.3548 1 2 cbr 1000 ------- 2 1.0 2.0 61 71
r 0.35528 2 3 tcp 1040 ------- 1 0.0 3.0 3 62
+ 0.35528 3 2 ack 40 ------- 1 3.0 0.0 3 74
- 0.35528 3 2 ack 40 ------- 1 3.0 0.0 3 74
+ 0.356 1 2 cbr 1000 ------- 2 1.0 2.0 64 75
- 0.356 1 2 cbr 1000 ------- 2 1.0 2.0 64 75
r 0.356112 2 3 tcp 1040 ------- 1 0.0 3.0 4 63
+ 0.356112 3 2 ack 40 ------- 1 3.0 0.0 4 76
- 0.356112 3 2 ack 40 ------- 1 3.0 0.0 4 76
r 0.356944 2 3 tcp 1040 ------- 1 0.0 3.0 5 64
+ 0.356944 3 2 ack 40 ------- 1 3.0 0.0 5 77
- 0.356944 3 2 ack 40 ------- 1 3.0 0.0 5 77
r 0.358576 2 3 tcp 1040 ------- 1 0.0 3.0 6 65
+ 0.358576 3 2 ack 40 ------- 1 3.0 0.0 6 78
- 0.358576 3 2 ack 40 ------- 1 3.0 0.0 6 78
r 0.3588 1 2 cbr 1000 ------- 2 1.0 2.0 62 72
+ 0.36 1 2 cbr 1000 ------- 2 1.0 2.0 65 79
- 0.36 1 2 cbr 1000 ------- 2 1.0 2.0 65 79
r 0.3628 1 2 cbr 1000 ------- 2 1.0 2.0 63 73
+ 0.364 1 2 cbr 1000 ------- 2 1.0 2.0 66 80
- 0.364 1 2 cbr 1000 ------- 2 1.0 2.0 66 80
r 0.365312 3 2 ack 40 ------- 1 3.0 0.0 3 74
+ 0.365312 2 1 ack 40 ------- 1 3.0 0.0 3 74
- 0.365312 2 1 ack 40 ------- 1 3.0 0.0 3 74
r 0.366144 3 2 ack 40 ------- 1 3.0 0.0 4 76
+ 0.366144 2 1 ack 40 ------- 1 3.0 0.0 4 76
- 0.366144 2 1 ack 40 ------- 1 3.0 0.0 4 76
r 0.3668 1 2 cbr 1000 ------- 2 1.0 2.0 64 75
r 0.366976 3 2 ack 40 ------- 1 3.0 0.0 5 77
+ 0.366976 2 1 ack 40 ------- 1 3.0 0.0 5 77
- 0.366976 2 1 ack 40 ------- 1 3.0 0.0 5 77
+ 0.368 1 2 cbr 1000 ------- 2 1.0 2.0 67 81
- 0.368 1 2 cbr 1000 ------- 2 1.0 2.0 67 81
r 0.368608 3 2 ack 40 ------- 1 3.0 0.0 6 78
+ 0.368608 2 1 ack 40 ------- 1 3.0 0.0 6 78
- 0.368608 2 1 ack 40 ------- 1 3.0 0.0 6 78
r 0.3708 1 2 cbr 1000 ------- 2 1.0 2.0 65 79
+ 0.372 1 2 cbr 1000 ------- 2 1.0 2.0 68 82
- 0.372 1 2 cbr 1000 ------- 2 1.0 2.0 68 82
r 0.3748 1 2 cbr 1000 ------- 2 1.0 2.0 66 80
r 0.375344 2 1 ack 40 ------- 1 3.0 0.0 3 74
+ 0.375344 1 0 ack 40 ------- 1 3.0 0.0 3 74
- 0.375344 1 0 ack 40 ------- 1 3.0 0.0 3 74
+ 0.376 1 2 cbr 1000 ------- 2 1.0 2.0 69 83
- 0.376 1 2 cbr 1000 ------- 2 1.0 2.0 69 83
r 0.376176 2 1 ack 40 ------- 1 3.0 0.0 4 76
+ 0.376176 1 0 ack 40 ------- 1 3.0 0.0 4 76
- 0.376176 1 0 ack 40 ------- 1 3.0 0.0 4 76
r 0.377008 2 1 ack 40 ------- 1 3.0 0.0 5 77
+ 0.377008 1 0 ack 40 ------- 1 3.0 0.0 5 77
- 0.377008 1 0 ack 40 ------- 1 3.0 0.0 5 77
r 0.37864 2 1 ack 40 ------- 1 3.0 0.0 6 78
+ 0.37864 1 0 ack 40 ------- 1 3.0 0.0 6 78
- 0.37864 1 0 ack 40 ------- 1 3.0 0.0 6 78
r 0.3788 1 2 cbr 1000 ------- 2 1.0 2.0 67 81
+ 0.38 1 2 cbr 1000 ------- 2 1.0 2.0 70 84
- 0.38 1 2 cbr 1000 ------- 2 1.0 2.0 70 84
r 0.3828 1 2 cbr 1000 ------- 2 1.0 2.0 68 82
+ 0.384 1 2 cbr 1000 ------- 2 1.0 2.0 71 85
- 0.384 1 2 cbr 1000 ------- 2 1.0 2.0 71 85
r 0.385376 1 0 ack 40 ------- 1 3.0 0.0 3 74
+ 0.385376 0 1 tcp 1040 ------- 1 0.0 3.0 7 86
- 0.385376 0 1 tcp 1040 ------- 1 0.0 3.0 7 86
+ 0.385376 0 1 tcp 1040 ------- 1 0.0 3.0 8 87
r 0.386208 1 0 ack 40 ------- 1 3.0 0.0 4 76
+ 0.386208 0 1 tcp 1040 ------- 1 0.0 3.0 9 88
+ 0.386208 0 1 tcp 1040 ------- 1 0.0 3.0 10 89
- 0.386208 0 1 tcp 1040 ------- 1 0.0 3.0 8 87
r 0.3868 1 2 cbr 1000 ------- 2 1.0 2.0 69 83
r 0.38704 1 0 ack 40 ------- 1 3.0 0.0 5 77
+ 0.38704 0 1 tcp 1040 ------- 1 0.0 3.0 11 90
+ 0.38704 0 1 tcp 1040 ------- 1 0.0 3.0 12 91
- 0.38704 0 1 tcp 1040 ------- 1 0.0 3.0 9 88
- 0.387872 0 1 tcp 1040 ------- 1 0.0 3.0 10 89
+ 0.388 1 2 cbr 1000 ------- 2 1.0 2.0 72 92
- 0.388 1 2 cbr 1000 ------- 2 1.0 2.0 72 92
r 0.388672 1 0 ack 40 ------- 1 3.0 0.0 6 78
+ 0.388672 0 1 tcp 1040 ------- 1 0.0 3.0 13 93
+ 0.388672 0 1 tcp 1040 ------- 1 0.0 3.0 14 94
- 0.388704 0 1 tcp 1040 ------- 1 0.0 3.0 11 90
- 0.389536 0 1 tcp 1040 ------- 1 0.0 3.0 12 91
- 0.390368 0 1 tcp 1040 ------- 1 0.0 3.0 13 93
r 0.3908 1 2 cbr 1000 ------- 2 1.0 2.0 70 84
- 0.3912 0 1 tcp 1040 ------- 1 0.0 3.0 14 94
+ 0.392 1 2 cbr 1000 ------- 2 1.0 2.0 73 95
- 0.392 1 2 cbr 1000 ------- 2 1.0 2.0 73 95
r 0.3948 1 2 cbr 1000 ------- 2 1.0 2.0 71 85
+ 0.396 1 2 cbr 1000 ------- 2 1.0 2.0 74 96
- 0.396 1 2 cbr 1000 ------- 2 1.0 2.0 74 96
r 0.396208 0 1 tcp 1040 ------- 1 0.0 3.0 7 86
+ 0.396208 1 2 tcp 1040 ------- 1 0.0 3.0 7 86
- 0.3968 1 2 tcp 1040 ------- 1 0.0 3.0 7 86
r 0.39704 0 1 tcp 1040 ------- 1 0.0 3.0 8 87
+ 0.39704 1 2 tcp 1040 ------- 1 0.0 3.0 8 87
- 0.397632 1 2 tcp 1040 ------- 1 0.0 3.0 8 87
r 0.397872 0 1 tcp 1040 ------- 1 0.0 3.0 9 88
+ 0.397872 1 2 tcp 1040 ------- 1 0.0 3.0 9 88
- 0.398464 1 2 tcp 1040 ------- 1 0.0 3.0 9 88
r 0.398704 0 1 tcp 1040 ------- 1 0.0 3.0 10 89
+ 0.398704 1 2 tcp 1040 ------- 1 0.0 3.0 10 89
r 0.3988 1 2 cbr 1000 ------- 2 1.0 2.0 72 92
- 0.399296 1 2 tcp 1040 ------- 1 0.0 3.0 10 89
r 0.399536 0 1 tcp 1040 ------- 1 0.0 3.0 11 90
+ 0.399536 1 2 tcp 1040 ------- 1 0.0 3.0 11 90
+ 0.4 1 2 cbr 1000 ------- 2 1.0 2.0 75 97
- 0.400128 1 2 tcp 1040 ------- 1 0.0 3.0 11 90
r 0.400368 0 1 tcp 1040 ------- 1 0.0 3.0 12 91
+ 0.400368 1 2 tcp 1040 ------- 1 0.0 3.0 12 91
- 0.40096 1 2 cbr 1000 ------- 2 1.0 2.0 75 97
r 0.4012 0 1 tcp 1040 ------- 1 0.0 3.0 13 93
+ 0.4012 1 2 tcp 1040 ------- 1 0.0 3.0 13 93
- 0.40176 1 2 tcp 1040 ------- 1 0.0 3.0 12 91
r 0.402032 0 1 tcp 1040 ------- 1 0.0 3.0 14 94
+ 0.402032 1 2 tcp 1040 ------- 1 0.0 3.0 14 94
- 0.402592 1 2 tcp 1040 ------- 1 0.0 3.0 13 93
r 0.4028 1 2 cbr 1000 ------- 2 1.0 2.0 73 95
- 0.403424 1 2 tcp 1040 ------- 1 0.0 3.0 14 94
+ 0.404 1 2 cbr 1000 ------- 2 1.0 2.0 76 98
- 0.404256 1 2 cbr 1000 ------- 2 1.0 2.0 76 98
r 0.4068 1 2 cbr 1000 ------- 2 1.0 2.0 74 96
r 0.407632 1 2 tcp 1040 ------- 1 0.0 3.0 7 86
+ 0.407632 2 3 tcp 1040 ------- 1 0.0 3.0 7 86
- 0.407632 2 3 tcp 1040 ------- 1 0.0 3.0 7 86
+ 0.408 1 2 cbr 1000 ------- 2 1.0 2.0 77 99
- 0.408 1 2 cbr 1000 ------- 2 1.0 2.0 77 99
r 0.408464 1 2 tcp 1040 ------- 1 0.0 3.0 8 87
+ 0.408464 2 3 tcp 1040 ------- 1 0.0 3.0 8 87
- 0.408464 2 3 tcp 1040 ------- 1 0.0 3.0 8 87
r 0.409296 1 2 tcp 1040 ------- 1 0.0 3.0 9 88
+ 0.409296 2 3 tcp 1040 ------- 1 0.0 3.0 9 88
- 0.409296 2 3 tcp 1040 ------- 1 0.0 3.0 9 88
r 0.410128 1 2 tcp 1040 ------- 1 0.0 3.0 10 89
+ 0.410128 2 3 tcp 1040 ------- 1 0.0 3.0 10 89
- 0.410128 2 3 tcp 1040 ------- 1 0.0 3.0 10 89
r 0.41096 1 2 tcp 1040 ------- 1 0.0 3.0 11 90
+ 0.41096 2 3 tcp 1040 ------- 1 0.0 3.0 11 90
- 0.41096 2 3 tcp 1040 ------- 1 0.0 3.0 11 90
r 0.41176 1 2 cbr 1000 ------- 2 1.0 2.0 75 97
+ 0.412 1 2 cbr 1000 ------- 2 1.0 2.0 78 100
- 0.412 1 2 cbr 1000 ------- 2 1.0 2.0 78 100
r 0.412592 1 2 tcp 1040 ------- 1 0.0 3.0 12 91
+ 0.412592 2 3 tcp 1040 ------- 1 0.0 3.0 12 91
- 0.412592 2 3 tcp 1040 ------- 1 0.0 3.0 12 91
r 0.413424 1 2 tcp 1040 ------- 1 0.0 3.0 13 93
+ 0.413424 2 3 tcp 1040 ------- 1 0.0 3.0 13 93
- 0.413424 2 3 tcp 1040 ------- 1 0.0 3.0 13 93
r 0.414256 1 2 tcp 1040 ------- 1 0.0 3.0 14 94
+ 0.414256 2 3 tcp 1040 ------- 1 0.0 3.0 14 94
- 0.414256 2 3 tcp 1040 ------- 1 0.0 3.0 14 94
r 0.415056 1 2 cbr 1000 ------- 2 1.0 2.0 76 98
+ 0.416 1 2 cbr 1000 ------- 2 1.0 2.0 79 101
- 0.416 1 2 cbr 1000 ------- 2 1.0 2.0 79 101
r 0.418464 2 3 tcp 1040 ------- 1 0.0 3.0 7 86
+ 0.418464 3 2 ack 40 ------- 1 3.0 0.0 7 102
- 0.418464 3 2 ack 40 ------- 1 3.0 0.0 7 102
r 0.4188 1 2 cbr 1000 ------- 2 1.0 2.0 77 99
r 0.419296 2 3 tcp 1040 ------- 1 0.0 3.0 8 87
+ 0.419296 3 2 ack 40 ------- 1 3.0 0.0 8 103
- 0.419296 3 2 ack 40 ------- 1 3.0 0.0 8 103
+ 0.42 1 2 cbr 1000 ------- 2 1.0 2.0 80 104
- 0.42 1 2 cbr 1000 ------- 2 1.0 2.0 80 104
r 0.420128 2 3 tcp 1040 ------- 1 0.0 3.0 9 88
+ 0.420128 3 2 ack 40 ------- 1 3.0 0.0 9 105
- 0.420128 3 2 ack 40 ------- 1 3.0 0.0 9 105
r 0.42096 2 3 tcp 1040 ------- 1 0.0 3.0 10 89
+ 0.42096 3 2 ack 40 ------- 1 3.0 0.0 10 106
- 0.42096 3 2 ack 40 ------- 1 3.0 0.0 10 106
r 0.421792 2 3 tcp 1040 ------- 1 0.0 3.0 11 90
+ 0.421792 3 2 ack 40 ------- 1 3.0 0.0 11 107
- 0.421792 3 2 ack 40 ------- 1 3.0 0.0 11 107
r 0.4228 1 2 cbr 1000 ------- 2 1.0 2.0 78 100
r 0.423424 2 3 tcp 1040 ------- 1 0.0 3.0 12 91
+ 0.423424 3 2 ack 40 ------- 1 3.0 0.0 12 108
- 0.423424 3 2 ack 40 ------- 1 3.0 0.0 12 108
+ 0.424 1 2 cbr 1000 ------- 2 1.0 2.0 81 109
- 0.424 1 2 cbr 1000 ------- 2 1.0 2.0 81 109
r 0.424256 2 3 tcp 1040 ------- 1 0.0 3.0 13 93
+ 0.424256 3 2 ack 40 ------- 1 3.0 0.0 13 110
- 0.424256 3 2 ack 40 ------- 1 3.0 0.0 13 110
r 0.425088 2 3 tcp 1040 ------- 1 0.0 3.0 14 94
+ 0.425088 3 2 ack 40 ------- 1 3.0 0.0 14 111
- 0.425088 3 2 ack 40 ------- 1 3.0 0.0 14 111
r 0.4268 1 2 cbr 1000 ------- 2 1.0 2.0 79 101
+ 0.428 1 2 cbr 1000 ------- 2 1.0 2.0 82 112
- 0.428 1 2 cbr 1000 ------- 2 1.0 2.0 82 112
r 0.428496 3 2 ack 40 ------- 1 3.0 0.0 7 102
+ 0.428496 2 1 ack 40 ------- 1 3.0 0.0 7 102
- 0.428496 2 1 ack 40 ------- 1 3.0 0.0 7 102
r 0.429328 3 2 ack 40 ------- 1 3.0 0.0 8 103
+ 0.429328 2 1 ack 40 ------- 1 3.0 0.0 8 103
- 0.429328 2 1 ack 40 ------- 1 3.0 0.0 8 103
r 0.43016 3 2 ack 40 ------- 1 3.0 0.0 9 105
+ 0.43016 2 1 ack 40 ------- 1 3.0 0.0 9 105
- 0.43016 2 1 ack 40 ------- 1 3.0 0.0 9 105
r 0.4308 1 2 cbr 1000 ------- 2 1.0 2.0 80 104
r 0.430992 3 2 ack 40 ------- 1 3.0 0.0 10 106
+ 0.430992 2 1 ack 40 ------- 1 3.0 0.0 10 106
- 0.430992 2 1 ack 40 ------- 1 3.0 0.0 10 106
r 0.431824 3 2 ack 40 ------- 1 3.0 0.0 11 107
+ 0.431824 2 1 ack 40 ------- 1 3.0 0.0 11 107
- 0.431824 2 1 ack 40 ------- 1 3.0 0.0 11 107
+ 0.432 1 2 cbr 1000 ------- 2 1.0 2.0 83 113
- 0.432 1 2 cbr 1000 ------- 2 1.0 2.0 83 113
r 0.433456 3 2 ack 40 ------- 1 3.0 0.0 12 108
+ 0.433456 2 1 ack 40 ------- 1 3.0 0.0 12 108
- 0.433456 2 1 ack 40 ------- 1 3.0 0.0 12 108
r 0.434288 3 2 ack 40 ------- 1 3.0 0.0 13 110
+ 0.434288 2 1 ack 40 ------- 1 3.0 0.0 13 110
- 0.434288 2 1 ack 40 ------- 1 3.0 0.0 13 110
r 0.4348 1 2 cbr 1000 ------- 2 1.0 2.0 81 109
r 0.43512 3 2 ack 40 ------- 1 3.0 0.0 14 111
+ 0.43512 2 1 ack 40 ------- 1 3.0 0.0 14 111
- 0.43512 2 1 ack 40 ------- 1 3.0 0.0 14 111
+ 0.436 1 2 cbr 1000 ------- 2 1.0 2.0 84 114
- 0.436 1 2 cbr 1000 ------- 2 1.0 2.0 84 114
r 0.438528 2 1 ack 40 ------- 1 3.0 0.0 7 102
+ 0.438528 1 0 ack 40 ------- 1 3.0 0.0 7 102
- 0.438528 1 0 ack 40 ------- 1 3.0 0.0 7 102
r 0.4388 1 2 cbr 1000 ------- 2 1.0 2.0 82 112
r 0.43936 2 1 ack 40 ------- 1 3.0 0.0 8 103
+ 0.43936 1 0 ack 40 ------- 1 3.0 0.0 8 103
- 0.43936 1 0 ack 40 ------- 1 3.0 0.0 8 103
+ 0.44 1 2 cbr 1000 ------- 2 1.0 2.0 85 115
- 0.44 1 2 cbr 1000 ------- 2 1.0 2.0 85 115
r 0.440192 2 1 ack 40 ------- 1 3.0 0.0 9 105
+ 0.440192 1 0 ack 40 ------- 1 3.0 0.0 9 105
- 0.440192 1 0 ack 40 ------- 1 3.0 0.0 9 105
r 0.441024 2 1 ack 40 ------- 1 3.0 0.0 10 106
+ 0.441024 1 0 ack 40 ------- 1 3.0 0.0 10 106
- 0.441024 1 0 ack 40 ------- 1 3.0 0.0 10 106
r 0.441856 2 1 ack 40 ------- 1 3.0 0.0 11 107
+ 0.441856 1 0 ack 40 ------- 1 3.0 0.0 11 107
- 0.441856 1 0 ack 40 ------- 1 3.0 0.0 11 107
r 0.4428 1 2 cbr 1000 ------- 2 1.0 2.0 83 113
r 0.443488 2 1 ack 40 ------- 1 3.0 0.0 12 108
+ 0.443488 1 0 ack 40 ------- 1 3.0 0.0 12 108
- 0.443488 1 0 ack 40 ------- 1 3.0 0.0 12 108
+ 0.444 1 2 cbr 1000 ------- 2 1.0 2.0 86 116
- 0.444 1 2 cbr 1000 ------- 2 1.0 2.0 86 116
r 0.44432 2 1 ack 40 ------- 1 3.0 0.0 13 110
+ 0.44432 1 0 ack 40 ------- 1 3.0 0.0 13 110
- 0.44432 1 0 ack 40 ------- 1 3.0 0.0 13 110
r 0.445152 2 1 ack 40 ------- 1 3.0 0.0 14 111
+ 0.445152 1 0 ack 40 ------- 1 3.0 0.0 14 111
- 0.445152 1 0 ack 40 ------- 1 3.0 0.0 14 111
r 0.4468 1 2 cbr 1000 ------- 2 1.0 2.0 84 114
+ 0.448 1 2 cbr 1000 ------- 2 1.0 2.0 87 117
- 0.448 1 2 cbr 1000 ------- 2 1.0 2.0 87 117
r 0.44856 1 0 ack 40 ------- 1 3.0 0.0 7 102
+ 0.44856 0 1 tcp 1040 ------- 1 0.0 3.0 15 118
- 0.44856 0 1 tcp 1040 ------- 1 0.0 3.0 15 118
+ 0.44856 0 1 tcp 1040 ------- 1 0.0 3.0 16 119
r 0.449392 1 0 ack 40 ------- 1 3.0 0.0 8 103
+ 0.449392 0 1 tcp 1040 ------- 1 0.0 3.0 17 120
+ 0.449392 0 1 tcp 1040 ------- 1 0.0 3.0 18 121
- 0.449392 0 1 tcp 1040 ------- 1 0.0 3.0 16 119
r 0.450224 1 0 ack 40 ------- 1 3.0 0.0 9 105
+ 0.450224 0 1 tcp 1040 ------- 1 0.0 3.0 19 122
+ 0.450224 0 1 tcp 1040 ------- 1 0.0 3.0 20 123
- 0.450224 0 1 tcp 1040 ------- 1 0.0 3.0 17 120
r 0.4508 1 2 cbr 1000 ------- 2 1.0 2.0 85 115
r 0.451056 1 0 ack 40 ------- 1 3.0 0.0 10 106
+ 0.451056 0 1 tcp 1040 ------- 1 0.0 3.0 21 124
+ 0.451056 0 1 tcp 1040 ------- 1 0.0 3.0 22 125
- 0.451056 0 1 tcp 1040 ------- 1 0.0 3.0 18 121
r 0.451888 1 0 ack 40 ------- 1 3.0 0.0 11 107
+ 0.451888 0 1 tcp 1040 ------- 1 0.0 3.0 23 126
+ 0.451888 0 1 tcp 1040 ------- 1 0.0 3.0 24 127
- 0.451888 0 1 tcp 1040 ------- 1 0.0 3.0 19 122
+ 0.452 1 2 cbr 1000 ------- 2 1.0 2.0 88 128
- 0.452 1 2 cbr 1000 ------- 2 1.0 2.0 88 128
- 0.45272 0 1 tcp 1040 ------- 1 0.0 3.0 20 123
r 0.45352 1 0 ack 40 ------- 1 3.0 0.0 12 108
+ 0.45352 0 1 tcp 1040 ------- 1 0.0 3.0 25 129
+ 0.45352 0 1 tcp 1040 ------- 1 0.0 3.0 26 130
- 0.453552 0 1 tcp 1040 ------- 1 0.0 3.0 21 124
r 0.454352 1 0 ack 40 ------- 1 3.0 0.0 13 110
+ 0.454352 0 1 tcp 1040 ------- 1 0.0 3.0 27 131
+ 0.454352 0 1 tcp 1040 ------- 1 0.0 3.0 28 132
- 0.454384 0 1 tcp 1040 ------- 1 0.0 3.0 22 125
r 0.4548 1 2 cbr 1000 ------- 2 1.0 2.0 86 116
r 0.455184 1 0 ack 40 ------- 1 3.0 0.0 14 111
+ 0.455184 0 1 tcp 1040 ------- 1 0.0 3.0 29 133
+ 0.455184 0 1 tcp 1040 ------- 1 0.0 3.0 30 134
- 0.455216 0 1 tcp 1040 ------- 1 0.0 3.0 23 126
+ 0.456 1 2 cbr 1000 ------- 2 1.0 2.0 89 135
- 0.456 1 2 cbr 1000 ------- 2 1.0 2.0 89 135
- 0.456048 0 1 tcp 1040 ------- 1 0.0 3.0 24 127
- 0.45688 0 1 tcp 1040 ------- 1 0.0 3.0 25 129
- 0.457712 0 1 tcp 1040 ------- 1 0.0 3.0 26 130
- 0.458544 0 1 tcp 1040 ------- 1 0.0 3.0 27 131
r 0.4588 1 2 cbr 1000 ------- 2 1.0 2.0 87 117
- 0.459376 0 1 tcp 1040 ------- 1 0.0 3.0 28 132
r 0.459392 0 1 tcp 1040 ------- 1 0.0 3.0 15 118
+ 0.459392 1 2 tcp 1040 ------- 1 0.0 3.0 15 118
- 0.459392 1 2 tcp 1040 ------- 1 0.0 3.0 15 118
+ 0.46 1 2 cbr 1000 ------- 2 1.0 2.0 90 136
- 0.460208 0 1 tcp 1040 ------- 1 0.0 3.0 29 133
r 0.460224 0 1 tcp 1040 ------- 1 0.0 3.0 16 119
+ 0.460224 1 2 tcp 1040 ------- 1 0.0 3.0 16 119
- 0.460224 1 2 cbr 1000 ------- 2 1.0 2.0 90 136
- 0.461024 1 2 tcp 1040 ------- 1 0.0 3.0 16 119
- 0.46104 0 1 tcp 1040 ------- 1 0.0 3.0 30 134
r 0.461056 0 1 tcp 1040 ------- 1 0.0 3.0 17 120
+ 0.461056 1 2 tcp 1040 ------- 1 0.0 3.0 17 120
- 0.461856 1 2 tcp 1040 ------- 1 0.0 3.0 17 120
r 0.461888 0 1 tcp 1040 ------- 1 0.0 3.0 18 121
+ 0.461888 1 2 tcp 1040 ------- 1 0.0 3.0 18 121
- 0.462688 1 2 tcp 1040 ------- 1 0.0 3.0 18 121
r 0.46272 0 1 tcp 1040 ------- 1 0.0 3.0 19 122
+ 0.46272 1 2 tcp 1040 ------- 1 0.0 3.0 19 122
r 0.4628 1 2 cbr 1000 ------- 2 1.0 2.0 88 128
- 0.46352 1 2 tcp 1040 ------- 1 0.0 3.0 19 122
r 0.463552 0 1 tcp 1040 ------- 1 0.0 3.0 20 123
+ 0.463552 1 2 tcp 1040 ------- 1 0.0 3.0 20 123
+ 0.464 1 2 cbr 1000 ------- 2 1.0 2.0 91 137
- 0.464352 1 2 tcp 1040 ------- 1 0.0 3.0 20 123
r 0.464384 0 1 tcp 1040 ------- 1 0.0 3.0 21 124
+ 0.464384 1 2 tcp 1040 ------- 1 0.0 3.0 21 124
- 0.465184 1 2 cbr 1000 ------- 2 1.0 2.0 91 137
r 0.465216 0 1 tcp 1040 ------- 1 0.0 3.0 22 125
+ 0.465216 1 2 tcp 1040 ------- 1 0.0 3.0 22 125
- 0.465984 1 2 tcp 1040 ------- 1 0.0 3.0 21 124
r 0.466048 0 1 tcp 1040 ------- 1 0.0 3.0 23 126
+ 0.466048 1 2 tcp 1040 ------- 1 0.0 3.0 23 126
r 0.4668 1 2 cbr 1000 ------- 2 1.0 2.0 89 135
- 0.466816 1 2 tcp 1040 ------- 1 0.0 3.0 22 125
r 0.46688 0 1 tcp 1040 ------- 1 0.0 3.0 24 127
+ 0.46688 1 2 tcp 1040 ------- 1 0.0 3.0 24 127
- 0.467648 1 2 tcp 1040 ------- 1 0.0 3.0 23 126
r 0.467712 0 1 tcp 1040 ------- 1 0.0 3.0 25 129
+ 0.467712 1 2 tcp 1040 ------- 1 0.0 3.0 25 129
+ 0.468 1 2 cbr 1000 ------- 2 1.0 2.0 92 138
- 0.46848 1 2 tcp 1040 ------- 1 0.0 3.0 24 127
r 0.468544 0 1 tcp 1040 ------- 1 0.0 3.0 26 130
+ 0.468544 1 2 tcp 1040 ------- 1 0.0 3.0 26 130
- 0.469312 1 2 tcp 1040 ------- 1 0.0 3.0 25 129
r 0.469376 0 1 tcp 1040 ------- 1 0.0 3.0 27 131
+ 0.469376 1 2 tcp 1040 ------- 1 0.0 3.0 27 131
- 0.470144 1 2 cbr 1000 ------- 2 1.0 2.0 92 138
r 0.470208 0 1 tcp 1040 ------- 1 0.0 3.0 28 132
+ 0.470208 1 2 tcp 1040 ------- 1 0.0 3.0 28 132
r 0.470224 1 2 tcp 1040 ------- 1 0.0 3.0 15 118
+ 0.470224 2 3 tcp 1040 ------- 1 0.0 3.0 15 118
- 0.470224 2 3 tcp 1040 ------- 1 0.0 3.0 15 118
- 0.470944 1 2 tcp 1040 ------- 1 0.0 3.0 26 130
r 0.471024 1 2 cbr 1000 ------- 2 1.0 2.0 90 136
r 0.47104 0 1 tcp 1040 ------- 1 0.0 3.0 29 133
+ 0.47104 1 2 tcp 1040 ------- 1 0.0 3.0 29 133
- 0.471776 1 2 tcp 1040 ------- 1 0.0 3.0 27 131
r 0.471856 1 2 tcp 1040 ------- 1 0.0 3.0 16 119
+ 0.471856 2 3 tcp 1040 ------- 1 0.0 3.0 16 119
- 0.471856 2 3 tcp 1040 ------- 1 0.0 3.0 16 119
r 0.471872 0 1 tcp 1040 ------- 1 0.0 3.0 30 134
+ 0.471872 1 2 tcp 1040 ------- 1 0.0 3.0 30 134
+ 0.472 1 2 cbr 1000 ------- 2 1.0 2.0 93 139
- 0.472608 1 2 tcp 1040 ------- 1 0.0 3.0 28 132
r 0.472688 1 2 tcp 1040 ------- 1 0.0 3.0 17 120
+ 0.472688 2 3 tcp 1040 ------- 1 0.0 3.0 17 120
- 0.472688 2 3 tcp 1040 ------- 1 0.0 3.0 17 120
- 0.47344 1 2 tcp 1040 ------- 1 0.0 3.0 29 133
r 0.47352 1 2 tcp 1040 ------- 1 0.0 3.0 18 121
+ 0.47352 2 3 tcp 1040 ------- 1 0.0 3.0 18 121
- 0.47352 2 3 tcp 1040 ------- 1 0.0 3.0 18 121
- 0.474272 1 2 tcp 1040 ------- 1 0.0 3.0 30 134
r 0.474352 1 2 tcp 1040 ------- 1 0.0 3.0 19 122
+ 0.474352 2 3 tcp 1040 ------- 1 0.0 3.0 19 122
- 0.474352 2 3 tcp 1040 ------- 1 0.0 3.0 19 122
- 0.475104 1 2 cbr 1000 ------- 2 1.0 2.0 93 139
r 0.475184 1 2 tcp 1040 ------- 1 0.0 3.0 20 123
+ 0.475184 2 3 tcp 1040 ------- 1 0.0 3.0 20 123
- 0.475184 2 3 tcp 1040 ------- 1 0.0 3.0 20 123
r 0.475984 1 2 cbr 1000 ------- 2 1.0 2.0 91 137
+ 0.476 1 2 cbr 1000 ------- 2 1.0 2.0 94 140