+ 0.1 1 2 cbr 1000 ------- 2 1.0 2.0 0 0
- 0.1 1 2 cbr 1000 ------- 2 1.0 2.0 0 0
+ 0.108 1 2 cbr 1000 ------- 2 1.0 2.0 1 1
- 0.108 1 2 cbr 1000 ------- 2 1.0 2.0 1 1
r 0.1108 1 2 cbr 1000 ------- 2 1.0 2.0 0 0
+ 0.116 1 2 cbr 1000 ------- 2 1.0 2.0 2 2
- 0.116 1 2 cbr 1000 ------- 2 1.0 2.0 2 2
r 0.1188 1 2 cbr 1000 ------- 2 1.0 2.0 1 1
+ 0.124 1 2 cbr 1000 ------- 2 1.0 2.0 3 3
- 0.124 1 2 cbr 1000 ------- 2 1.0 2.0 3 3
r 0.1268 1 2 cbr 1000 ------- 2 1.0 2.0 2 2
+ 0.132 1 2 cbr 1000 ------- 2 1.0 2.0 4 4
- 0.132 1 2 cbr 1000 ------- 2 1.0 2.0 4 4
r 0.1348 1 2 cbr 1000 ------- 2 1.0 2.0 3 3
+ 0.14 1 2 cbr 1000 ------- 2 1.0 2.0 5 5
- 0.14 1 2 cbr 1000 ------- 2 1.0 2.0 5 5
r 0.1428 1 2 cbr 1000 ------- 2 1.0 2.0 4 4
+ 0.148 1 2 cbr 1000 ------- 2 1.0 2.0 6 6
- 0.148 1 2 cbr 1000 ------- 2 1.0 2.0 6 6
r 0.1508 1 2 cbr 1000 ------- 2 1.0 2.0 5 5
+ 0.156 1 2 cbr 1000 ------- 2 1.0 2.0 7 7
- 0.156 1 2 cbr 1000 ------- 2 1.0 2.0 7 7
r 0.1588 1 2 cbr 1000 ------- 2 1.0 2.0 6 6
+ 0.164 1 2 cbr 1000 ------- 2 1.0 2.0 8 8
- 0.164 1 2 cbr 1000 ------- 2 1.0 2.0 8 8
r 0.1668 1 2 cbr 1000 ------- 2 1.0 2.0 7 7
+ 0.172 1 2 cbr 1000 ------- 2 1.0 2.0 9 9
- 0.172 1 2 cbr 1000 ------- 2 1.0 2.0 9 9
r 0.1748 1 2 cbr 1000 ------- 2 1.0 2.0 8 8
+ 0.18 1 2 cbr 1000 ------- 2 1.0 2.0 10 10
- 0.18 1 2 cbr 1000 ------- 2 1.0 2.0 10 10
r 0.1828 1 2 cbr 1000 ------- 2 1.0 2.0 9 9
+ 0.188 1 2 cbr 1000 ------- 2 1.0 2.0 11 11
- 0.188 1 2 cbr 1000 ------- 2 1.0 2.0 11 11
r 0.1908 1 2 cbr 1000 ------- 2 1.0 2.0 10 10
+ 0.196 1 2 cbr 1000 ------- 2 1.0 2.0 12 12
- 0.196 1 2 cbr 1000 ------- 2 1.0 2.0 12 12
r 0.1988 1 2 cbr 1000 ------- 2 1.0 2.0 11 11
+ 0.2 0 1 tcp 1000 ------- 1 0.0 3.0 0 13
- 0.2 0 1 tcp 1000 ------- 1 0.0 3.0 0 13
+ 0.204 1 2 cbr 1000 ------- 2 1.0 2.0 13 14
- 0.204 1 2 cbr 1000 ------- 2 1.0 2.0 13 14
r 0.2068 1 2 cbr 1000 ------- 2 1.0 2.0 12 12
r 0.2108 0 1 tcp 1000 ------- 1 0.0 3.0 0 13
+ 0.2108 1 2 tcp 1000 ------- 1 0.0 3.0 0 13
- 0.2108 1 2 tcp 1000 ------- 1 0.0 3.0 0 13
+ 0.212 1 2 cbr 1000 ------- 2 1.0 2.0 14 15
- 0.212 1 2 cbr 1000 ------- 2 1.0 2.0 14 15
r 0.2148 1 2 cbr 1000 ------- 2 1.0 2.0 13 14
+ 0.22 1 2 cbr 1000 ------- 2 1.0 2.0 15 16
- 0.22 1 2 cbr 1000 ------- 2 1.0 2.0 15 16
r 0.2216 1 2 tcp 1000 ------- 1 0.0 3.0 0 13
+ 0.2216 2 3 tcp 1000 ------- 1 0.0 3.0 0 13
- 0.2216 2 3 tcp 1000 ------- 1 0.0 3.0 0 13
r 0.2228 1 2 cbr 1000 ------- 2 1.0 2.0 14 15
+ 0.228 1 2 cbr 1000 ------- 2 1.0 2.0 16 17
- 0.228 1 2 cbr 1000 ------- 2 1.0 2.0 16 17
r 0.2308 1 2 cbr 1000 ------- 2 1.0 2.0 15 16
r 0.2324 2 3 tcp 1000 ------- 1 0.0 3.0 0 13
+ 0.2324 3 2 ack 40 ------- 1 3.0 0.0 0 18
- 0.2324 3 2 ack 40 ------- 1 3.0 0.0 0 18
+ 0.236 1 2 cbr 1000 ------- 2 1.0 2.0 17 19
- 0.236 1 2 cbr 1000 ------- 2 1.0 2.0 17 19
r 0.2388 1 2 cbr 1000 ------- 2 1.0 2.0 16 17
r 0.242432 3 2 ack 40 ------- 1 3.0 0.0 0 18
+ 0.242432 2 1 ack 40 ------- 1 3.0 0.0 0 18
- 0.242432 2 1 ack 40 ------- 1 3.0 0.0 0 18
+ 0.244 1 2 cbr 1000 ------- 2 1.0 2.0 18 20
- 0.244 1 2 cbr 1000 ------- 2 1.0 2.0 18 20
r 0.2468 1 2 cbr 1000 ------- 2 1.0 2.0 17 19
+ 0.252 1 2 cbr 1000 ------- 2 1.0 2.0 19 21
- 0.252 1 2 cbr 1000 ------- 2 1.0 2.0 19 21
r 0.252464 2 1 ack 40 ------- 1 3.0 0.0 0 18
+ 0.252464 1 0 ack 40 ------- 1 3.0 0.0 0 18
- 0.252464 1 0 ack 40 ------- 1 3.0 0.0 0 18
r 0.2548 1 2 cbr 1000 ------- 2 1.0 2.0 18 20
+ 0.26 1 2 cbr 1000 ------- 2 1.0 2.0 20 22
- 0.26 1 2 cbr 1000 ------- 2 1.0 2.0 20 22
r 0.262496 1 0 ack 40 ------- 1 3.0 0.0 0 18
+ 0.262496 0 1 tcp 1000 ------- 1 0.0 3.0 1 23
- 0.262496 0 1 tcp 1000 ------- 1 0.0 3.0 1 23
r 0.2628 1 2 cbr 1000 ------- 2 1.0 2.0 19 21
+ 0.268 1 2 cbr 1000 ------- 2 1.0 2.0 21 24
- 0.268 1 2 cbr 1000 ------- 2 1.0 2.0 21 24
r 0.2708 1 2 cbr 1000 ------- 2 1.0 2.0 20 22
r 0.273296 0 1 tcp 1000 ------- 1 0.0 3.0 1 23
+ 0.273296 1 2 tcp 1000 ------- 1 0.0 3.0 1 23
- 0.273296 1 2 tcp 1000 ------- 1 0.0 3.0 1 23
+ 0.276 1 2 cbr 1000 ------- 2 1.0 2.0 22 25
- 0.276 1 2 cbr 1000 ------- 2 1.0 2.0 22 25
r 0.2788 1 2 cbr 1000 ------- 2 1.0 2.0 21 24
+ 0.284 1 2 cbr 1000 ------- 2 1.0 2.0 23 26
- 0.284 1 2 cbr 1000 ------- 2 1.0 2.0 23 26
r 0.284096 1 2 tcp 1000 ------- 1 0.0 3.0 1 23
+ 0.284096 2 3 tcp 1000 ------- 1 0.0 3.0 1 23
- 0.284096 2 3 tcp 1000 ------- 1 0.0 3.0 1 23
r 0.2868 1 2 cbr 1000 ------- 2 1.0 2.0 22 25
+ 0.292 1 2 cbr 1000 ------- 2 1.0 2.0 24 27
- 0.292 1 2 cbr 1000 ------- 2 1.0 2.0 24 27
r 0.2948 1 2 cbr 1000 ------- 2 1.0 2.0 23 26
r 0.294896 2 3 tcp 1000 ------- 1 0.0 3.0 1 23
+ 0.294896 3 2 ack 40 ------- 1 3.0 0.0 1 28
- 0.294896 3 2 ack 40 ------- 1 3.0 0.0 1 28
+ 0.3 1 2 cbr 1000 ------- 2 1.0 2.0 25 29
- 0.3 1 2 cbr 1000 ------- 2 1.0 2.0 25 29
r 0.3028 1 2 cbr 1000 ------- 2 1.0 2.0 24 27
r 0.304928 3 2 ack 40 ------- 1 3.0 0.0 1 28
+ 0.304928 2 1 ack 40 ------- 1 3.0 0.0 1 28
- 0.304928 2 1 ack 40 ------- 1 3.0 0.0 1 28
+ 0.308 1 2 cbr 1000 ------- 2 1.0 2.0 26 30
- 0.308 1 2 cbr 1000 ------- 2 1.0 2.0 26 30
r 0.3108 1 2 cbr 1000 ------- 2 1.0 2.0 25 29
r 0.31496 2 1 ack 40 ------- 1 3.0 0.0 1 28
+ 0.31496 1 0 ack 40 ------- 1 3.0 0.0 1 28
- 0.31496 1 0 ack 40 ------- 1 3.0 0.0 1 28
+ 0.316 1 2 cbr 1000 ------- 2 1.0 2.0 27 31
- 0.316 1 2 cbr 1000 ------- 2 1.0 2.0 27 31
r 0.3188 1 2 cbr 1000 ------- 2 1.0 2.0 26 30
+ 0.324 1 2 cbr 1000 ------- 2 1.0 2.0 28 32
- 0.324 1 2 cbr 1000 ------- 2 1.0 2.0 28 32
r 0.324992 1 0 ack 40 ------- 1 3.0 0.0 1 28
+ 0.324992 0 1 tcp 1000 ------- 1 0.0 3.0 2 33
- 0.324992 0 1 tcp 1000 ------- 1 0.0 3.0 2 33
+ 0.324992 0 1 tcp 1000 ------- 1 0.0 3.0 3 34
+ 0.324992 0 1 tcp 1000 ------- 1 0.0 3.0 4 35
- 0.325792 0 1 tcp 1000 ------- 1 0.0 3.0 3 34
- 0.326592 0 1 tcp 1000 ------- 1 0.0 3.0 4 35
r 0.3268 1 2 cbr 1000 ------- 2 1.0 2.0 27 31
+ 0.332 1 2 cbr 1000 ------- 2 1.0 2.0 29 36
- 0.332 1 2 cbr 1000 ------- 2 1.0 2.0 29 36
r 0.3348 1 2 cbr 1000 ------- 2 1.0 2.0 28 32
r 0.335792 0 1 tcp 1000 ------- 1 0.0 3.0 2 33
+ 0.335792 1 2 tcp 1000 ------- 1 0.0 3.0 2 33
- 0.335792 1 2 tcp 1000 ------- 1 0.0 3.0 2 33
r 0.336592 0 1 tcp 1000 ------- 1 0.0 3.0 3 34
+ 0.336592 1 2 tcp 1000 ------- 1 0.0 3.0 3 34
- 0.336592 1 2 tcp 1000 ------- 1 0.0 3.0 3 34
r 0.337392 0 1 tcp 1000 ------- 1 0.0 3.0 4 35
+ 0.337392 1 2 tcp 1000 ------- 1 0.0 3.0 4 35
- 0.337392 1 2 tcp 1000 ------- 1 0.0 3.0 4 35
+ 0.34 1 2 cbr 1000 ------- 2 1.0 2.0 30 37
- 0.34 1 2 cbr 1000 ------- 2 1.0 2.0 30 37
r 0.3428 1 2 cbr 1000 ------- 2 1.0 2.0 29 36
r 0.346592 1 2 tcp 1000 ------- 1 0.0 3.0 2 33
+ 0.346592 2 3 tcp 1000 ------- 1 0.0 3.0 2 33
- 0.346592 2 3 tcp 1000 ------- 1 0.0 3.0 2 33
r 0.347392 1 2 tcp 1000 ------- 1 0.0 3.0 3 34
+ 0.347392 2 3 tcp 1000 ------- 1 0.0 3.0 3 34
- 0.347392 2 3 tcp 1000 ------- 1 0.0 3.0 3 34
+ 0.348 1 2 cbr 1000 ------- 2 1.0 2.0 31 38
- 0.348 1 2 cbr 1000 ------- 2 1.0 2.0 31 38
r 0.348192 1 2 tcp 1000 ------- 1 0.0 3.0 4 35
+ 0.348192 2 3 tcp 1000 ------- 1 0.0 3.0 4 35
- 0.348192 2 3 tcp 1000 ------- 1 0.0 3.0 4 35
r 0.3508 1 2 cbr 1000 ------- 2 1.0 2.0 30 37
+ 0.356 1 2 cbr 1000 ------- 2 1.0 2.0 32 39
- 0.356 1 2 cbr 1000 ------- 2 1.0 2.0 32 39
r 0.357392 2 3 tcp 1000 ------- 1 0.0 3.0 2 33
+ 0.357392 3 2 ack 40 ------- 1 3.0 0.0 2 40
- 0.357392 3 2 ack 40 ------- 1 3.0 0.0 2 40
r 0.358192 2 3 tcp 1000 ------- 1 0.0 3.0 3 34
+ 0.358192 3 2 ack 40 ------- 1 3.0 0.0 3 41
- 0.358192 3 2 ack 40 ------- 1 3.0 0.0 3 41
r 0.3588 1 2 cbr 1000 ------- 2 1.0 2.0 31 38
r 0.358992 2 3 tcp 1000 ------- 1 0.0 3.0 4 35
+ 0.358992 3 2 ack 40 ------- 1 3.0 0.0 4 42
- 0.358992 3 2 ack 40 ------- 1 3.0 0.0 4 42
+ 0.364 1 2 cbr 1000 ------- 2 1.0 2.0 33 43
- 0.364 1 2 cbr 1000 ------- 2 1.0 2.0 33 43
r 0.3668 1 2 cbr 1000 ------- 2 1.0 2.0 32 39
r 0.367424 3 2 ack 40 ------- 1 3.0 0.0 2 40
+ 0.367424 2 1 ack 40 ------- 1 3.0 0.0 2 40
- 0.367424 2 1 ack 40 ------- 1 3.0 0.0 2 40
r 0.368224 3 2 ack 40 ------- 1 3.0 0.0 3 41
+ 0.368224 2 1 ack 40 ------- 1 3.0 0.0 3 41
- 0.368224 2 1 ack 40 ------- 1 3.0 0.0 3 41
r 0.369024 3 2 ack 40 ------- 1 3.0 0.0 4 42
+ 0.369024 2 1 ack 40 ------- 1 3.0 0.0 4 42
- 0.369024 2 1 ack 40 ------- 1 3.0 0.0 4 42
+ 0.372 1 2 cbr 1000 ------- 2 1.0 2.0 34 44
- 0.372 1 2 cbr 1000 ------- 2 1.0 2.0 34 44
r 0.3748 1 2 cbr 1000 ------- 2 1.0 2.0 33 43
r 0.377456 2 1 ack 40 ------- 1 3.0 0.0 2 40
+ 0.377456 1 0 ack 40 ------- 1 3.0 0.0 2 40
- 0.377456 1 0 ack 40 ------- 1 3.0 0.0 2 40
r 0.378256 2 1 ack 40 ------- 1 3.0 0.0 3 41
+ 0.378256 1 0 ack 40 ------- 1 3.0 0.0 3 41
- 0.378256 1 0 ack 40 ------- 1 3.0 0.0 3 41
r 0.379056 2 1 ack 40 ------- 1 3.0 0.0 4 42
+ 0.379056 1 0 ack 40 ------- 1 3.0 0.0 4 42
- 0.379056 1 0 ack 40 ------- 1 3.0 0.0 4 42
+ 0.38 1 2 cbr 1000 ------- 2 1.0 2.0 35 45
- 0.38 1 2 cbr 1000 ------- 2 1.0 2.0 35 45
r 0.3828 1 2 cbr 1000 ------- 2 1.0 2.0 34 44
r 0.387488 1 0 ack 40 ------- 1 3.0 0.0 2 40
+ 0.387488 0 1 tcp 1000 ------- 1 0.0 3.0 5 46
- 0.387488 0 1 tcp 1000 ------- 1 0.0 3.0 5 46
+ 0.388 1 2 cbr 1000 ------- 2 1.0 2.0 36 47
- 0.388 1 2 cbr 1000 ------- 2 1.0 2.0 36 47
r 0.388288 1 0 ack 40 ------- 1 3.0 0.0 3 41
+ 0.388288 0 1 tcp 1000 ------- 1 0.0 3.0 6 48
- 0.388288 0 1 tcp 1000 ------- 1 0.0 3.0 6 48
r 0.389088 1 0 ack 40 ------- 1 3.0 0.0 4 42
+ 0.389088 0 1 tcp 1000 ------- 1 0.0 3.0 7 49
- 0.389088 0 1 tcp 1000 ------- 1 0.0 3.0 7 49
r 0.3908 1 2 cbr 1000 ------- 2 1.0 2.0 35 45
+ 0.396 1 2 cbr 1000 ------- 2 1.0 2.0 37 50
- 0.396 1 2 cbr 1000 ------- 2 1.0 2.0 37 50
r 0.398288 0 1 tcp 1000 ------- 1 0.0 3.0 5 46
+ 0.398288 1 2 tcp 1000 ------- 1 0.0 3.0 5 46
- 0.398288 1 2 tcp 1000 ------- 1 0.0 3.0 5 46
r 0.3988 1 2 cbr 1000 ------- 2 1.0 2.0 36 47
r 0.399088 0 1 tcp 1000 ------- 1 0.0 3.0 6 48
+ 0.399088 1 2 tcp 1000 ------- 1 0.0 3.0 6 48
- 0.399088 1 2 tcp 1000 ------- 1 0.0 3.0 6 48
r 0.399888 0 1 tcp 1000 ------- 1 0.0 3.0 7 49
+ 0.399888 1 2 tcp 1000 ------- 1 0.0 3.0 7 49
- 0.399888 1 2 tcp 1000 ------- 1 0.0 3.0 7 49
+ 0.404 1 2 cbr 1000 ------- 2 1.0 2.0 38 51
- 0.404 1 2 cbr 1000 ------- 2 1.0 2.0 38 51
r 0.4068 1 2 cbr 1000 ------- 2 1.0 2.0 37 50
r 0.409088 1 2 tcp 1000 ------- 1 0.0 3.0 5 46
+ 0.409088 2 3 tcp 1000 ------- 1 0.0 3.0 5 46
- 0.409088 2 3 tcp 1000 ------- 1 0.0 3.0 5 46
r 0.409888 1 2 tcp 1000 ------- 1 0.0 3.0 6 48
+ 0.409888 2 3 tcp 1000 ------- 1 0.0 3.0 6 48
- 0.409888 2 3 tcp 1000 ------- 1 0.0 3.0 6 48
r 0.410688 1 2 tcp 1000 ------- 1 0.0 3.0 7 49
+ 0.410688 2 3 tcp 1000 ------- 1 0.0 3.0 7 49
- 0.410688 2 3 tcp 1000 ------- 1 0.0 3.0 7 49
+ 0.412 1 2 cbr 1000 ------- 2 1.0 2.0 39 52
- 0.412 1 2 cbr 1000 ------- 2 1.0 2.0 39 52
r 0.4148 1 2 cbr 1000 ------- 2 1.0 2.0 38 51
r 0.419888 2 3 tcp 1000 ------- 1 0.0 3.0 5 46
+ 0.419888 3 2 ack 40 ------- 1 3.0 0.0 5 53
- 0.419888 3 2 ack 40 ------- 1 3.0 0.0 5 53
+ 0.42 1 2 cbr 1000 ------- 2 1.0 2.0 40 54
- 0.42 1 2 cbr 1000 ------- 2 1.0 2.0 40 54
r 0.420688 2 3 tcp 1000 ------- 1 0.0 3.0 6 48
+ 0.420688 3 2 ack 40 ------- 1 3.0 0.0 6 55
- 0.420688 3 2 ack 40 ------- 1 3.0 0.0 6 55
r 0.421488 2 3 tcp 1000 ------- 1 0.0 3.0 7 49
+ 0.421488 3 2 ack 40 ------- 1 3.0 0.0 7 56
- 0.421488 3 2 ack 40 ------- 1 3.0 0.0 7 56
r 0.4228 1 2 cbr 1000 ------- 2 1.0 2.0 39 52
+ 0.428 1 2 cbr 1000 ------- 2 1.0 2.0 41 57
- 0.428 1 2 cbr 1000 ------- 2 1.0 2.0 41 57
r 0.42992 3 2 ack 40 ------- 1 3.0 0.0 5 53
+ 0.42992 2 1 ack 40 ------- 1 3.0 0.0 5 53
- 0.42992 2 1 ack 40 ------- 1 3.0 0.0 5 53
r 0.43072 3 2 ack 40 ------- 1 3.0 0.0 6 55
+ 0.43072 2 1 ack 40 ------- 1 3.0 0.0 6 55
- 0.43072 2 1 ack 40 ------- 1 3.0 0.0 6 55
r 0.4308 1 2 cbr 1000 ------- 2 1.0 2.0 40 54
r 0.43152 3 2 ack 40 ------- 1 3.0 0.0 7 56
+ 0.43152 2 1 ack 40 ------- 1 3.0 0.0 7 56
- 0.43152 2 1 ack 40 ------- 1 3.0 0.0 7 56
+ 0.436 1 2 cbr 1000 ------- 2 1.0 2.0 42 58
- 0.436 1 2 cbr 1000 ------- 2 1.0 2.0 42 58
r 0.4388 1 2 cbr 1000 ------- 2 1.0 2.0 41 57
r 0.439952 2 1 ack 40 ------- 1 3.0 0.0 5 53
+ 0.439952 1 0 ack 40 ------- 1 3.0 0.0 5 53
- 0.439952 1 0 ack 40 ------- 1 3.0 0.0 5 53
r 0.440752 2 1 ack 40 ------- 1 3.0 0.0 6 55
+ 0.440752 1 0 ack 40 ------- 1 3.0 0.0 6 55
- 0.440752 1 0 ack 40 ------- 1 3.0 0.0 6 55
r 0.441552 2 1 ack 40 ------- 1 3.0 0.0 7 56
+ 0.441552 1 0 ack 40 ------- 1 3.0 0.0 7 56
- 0.441552 1 0 ack 40 ------- 1 3.0 0.0 7 56
+ 0.444 1 2 cbr 1000 ------- 2 1.0 2.0 43 59
- 0.444 1 2 cbr 1000 ------- 2 1.0 2.0 43 59
r 0.4468 1 2 cbr 1000 ------- 2 1.0 2.0 42 58
r 0.449984 1 0 ack 40 ------- 1 3.0 0.0 5 53
+ 0.449984 0 1 tcp 1000 ------- 1 0.0 3.0 8 60
- 0.449984 0 1 tcp 1000 ------- 1 0.0 3.0 8 60
+ 0.449984 0 1 tcp 1000 ------- 1 0.0 3.0 9 61
r 0.450784 1 0 ack 40 ------- 1 3.0 0.0 6 55
+ 0.450784 0 1 tcp 1000 ------- 1 0.0 3.0 10 62
+ 0.450784 0 1 tcp 1000 ------- 1 0.0 3.0 11 63
- 0.450784 0 1 tcp 1000 ------- 1 0.0 3.0 9 61
r 0.451584 1 0 ack 40 ------- 1 3.0 0.0 7 56
+ 0.451584 0 1 tcp 1000 ------- 1 0.0 3.0 12 64
+ 0.451584 0 1 tcp 1000 ------- 1 0.0 3.0 13 65
- 0.451584 0 1 tcp 1000 ------- 1 0.0 3.0 10 62
+ 0.452 1 2 cbr 1000 ------- 2 1.0 2.0 44 66
- 0.452 1 2 cbr 1000 ------- 2 1.0 2.0 44 66
- 0.452384 0 1 tcp 1000 ------- 1 0.0 3.0 11 63
- 0.453184 0 1 tcp 1000 ------- 1 0.0 3.0 12 64
- 0.453984 0 1 tcp 1000 ------- 1 0.0 3.0 13 65
r 0.4548 1 2 cbr 1000 ------- 2 1.0 2.0 43 59
+ 0.46 1 2 cbr 1000 ------- 2 1.0 2.0 45 67
- 0.46 1 2 cbr 1000 ------- 2 1.0 2.0 45 67
r 0.460784 0 1 tcp 1000 ------- 1 0.0 3.0 8 60
+ 0.460784 1 2 tcp 1000 ------- 1 0.0 3.0 8 60
- 0.4608 1 2 tcp 1000 ------- 1 0.0 3.0 8 60
r 0.461584 0 1 tcp 1000 ------- 1 0.0 3.0 9 61
+ 0.461584 1 2 tcp 1000 ------- 1 0.0 3.0 9 61
- 0.4616 1 2 tcp 1000 ------- 1 0.0 3.0 9 61
r 0.462384 0 1 tcp 1000 ------- 1 0.0 3.0 10 62
+ 0.462384 1 2 tcp 1000 ------- 1 0.0 3.0 10 62
- 0.4624 1 2 tcp 1000 ------- 1 0.0 3.0 10 62
r 0.4628 1 2 cbr 1000 ------- 2 1.0 2.0 44 66
r 0.463184 0 1 tcp 1000 ------- 1 0.0 3.0 11 63
+ 0.463184 1 2 tcp 1000 ------- 1 0.0 3.0 11 63
- 0.4632 1 2 tcp 1000 ------- 1 0.0 3.0 11 63
r 0.463984 0 1 tcp 1000 ------- 1 0.0 3.0 12 64
+ 0.463984 1 2 tcp 1000 ------- 1 0.0 3.0 12 64
- 0.464 1 2 tcp 1000 ------- 1 0.0 3.0 12 64
r 0.464784 0 1 tcp 1000 ------- 1 0.0 3.0 13 65
+ 0.464784 1 2 tcp 1000 ------- 1 0.0 3.0 13 65
- 0.4648 1 2 tcp 1000 ------- 1 0.0 3.0 13 65
+ 0.468 1 2 cbr 1000 ------- 2 1.0 2.0 46 68
- 0.468 1 2 cbr 1000 ------- 2 1.0 2.0 46 68
r 0.4708 1 2 cbr 1000 ------- 2 1.0 2.0 45 67
r 0.4716 1 2 tcp 1000 ------- 1 0.0 3.0 8 60
+ 0.4716 2 3 tcp 1000 ------- 1 0.0 3.0 8 60
- 0.4716 2 3 tcp 1000 ------- 1 0.0 3.0 8 60
r 0.4724 1 2 tcp 1000 ------- 1 0.0 3.0 9 61
+ 0.4724 2 3 tcp 1000 ------- 1 0.0 3.0 9 61
- 0.4724 2 3 tcp 1000 ------- 1 0.0 3.0 9 61
r 0.4732 1 2 tcp 1000 ------- 1 0.0 3.0 10 62
+ 0.4732 2 3 tcp 1000 ------- 1 0.0 3.0 10 62
- 0.4732 2 3 tcp 1000 ------- 1 0.0 3.0 10 62
r 0.474 1 2 tcp 1000 ------- 1 0.0 3.0 11 63
+ 0.474 2 3 tcp 1000 ------- 1 0.0 3.0 11 63
- 0.474 2 3 tcp 1000 ------- 1 0.0 3.0 11 63
r 0.4748 1 2 tcp 1000 ------- 1 0.0 3.0 12 64
+ 0.4748 2 3 tcp 1000 ------- 1 0.0 3.0 12 64
- 0.4748 2 3 tcp 1000 ------- 1 0.0 3.0 12 64
r 0.4756 1 2 tcp 1000 ------- 1 0.0 3.0 13 65
+ 0.4756 2 3 tcp 1000 ------- 1 0.0 3.0 13 65
- 0.4756 2 3 tcp 1000 ------- 1 0.0 3.0 13 65
+ 0.476 1 2 cbr 1000 ------- 2 1.0 2.0 47 69
- 0.476 1 2 cbr 1000 ------- 2 1.0 2.0 47 69
r 0.4788 1 2 cbr 1000 ------- 2 1.0 2.0 46 68
r 0.4824 2 3 tcp 1000 ------- 1 0.0 3.0 8 60
+ 0.4824 3 2 ack 40 ------- 1 3.0 0.0 8 70
- 0.4824 3 2 ack 40 ------- 1 3.0 0.0 8 70
r 0.4832 2 3 tcp 1000 ------- 1 0.0 3.0 9 61
+ 0.4832 3 2 ack 40 ------- 1 3.0 0.0 9 71
- 0.4832 3 2 ack 40 ------- 1 3.0 0.0 9 71
r 0.484 2 3 tcp 1000 ------- 1 0.0 3.0 10 62
+ 0.484 3 2 ack 40 ------- 1 3.0 0.0 10 72
- 0.484 3 2 ack 40 ------- 1 3.0 0.0 10 72
+ 0.484 1 2 cbr 1000 ------- 2 1.0 2.0 48 73
- 0.484 1 2 cbr 1000 ------- 2 1.0 2.0 48 73
r 0.4848 2 3 tcp 1000 ------- 1 0.0 3.0 11 63
+ 0.4848 3 2 ack 40 ------- 1 3.0 0.0 11 74
- 0.4848 3 2 ack 40 ------- 1 3.0 0.0 11 74
r 0.4856 2 3 tcp 1000 ------- 1 0.0 3.0 12 64
+ 0.4856 3 2 ack 40 ------- 1 3.0 0.0 12 75
- 0.4856 3 2 ack 40 ------- 1 3.0 0.0 12 75
r 0.4864 2 3 tcp 1000 ------- 1 0.0 3.0 13 65
+ 0.4864 3 2 ack 40 ------- 1 3.0 0.0 13 76
- 0.4864 3 2 ack 40 ------- 1 3.0 0.0 13 76
r 0.4868 1 2 cbr 1000 ------- 2 1.0 2.0 47 69
+ 0.492 1 2 cbr 1000 ------- 2 1.0 2.0 49 77
- 0.492 1 2 cbr 1000 ------- 2 1.0 2.0 49 77
r 0.492432 3 2 ack 40 ------- 1 3.0 0.0 8 70
+ 0.492432 2 1 ack 40 ------- 1 3.0 0.0 8 70
- 0.492432 2 1 ack 40 ------- 1 3.0 0.0 8 70
r 0.493232 3 2 ack 40 ------- 1 3.0 0.0 9 71
+ 0.493232 2 1 ack 40 ------- 1 3.0 0.0 9 71
- 0.493232 2 1 ack 40 ------- 1 3.0 0.0 9 71
r 0.494032 3 2 ack 40 ------- 1 3.0 0.0 10 72
+ 0.494032 2 1 ack 40 ------- 1 3.0 0.0 10 72
- 0.494032 2 1 ack 40 ------- 1 3.0 0.0 10 72
r 0.4948 1 2 cbr 1000 ------- 2 1.0 2.0 48 73
r 0.494832 3 2 ack 40 ------- 1 3.0 0.0 11 74
+ 0.494832 2 1 ack 40 ------- 1 3.0 0.0 11 74
- 0.494832 2 1 ack 40 ------- 1 3.0 0.0 11 74
r 0.495632 3 2 ack 40 ------- 1 3.0 0.0 12 75
+ 0.495632 2 1 ack 40 ------- 1 3.0 0.0 12 75
- 0.495632 2 1 ack 40 ------- 1 3.0 0.0 12 75
r 0.496432 3 2 ack 40 ------- 1 3.0 0.0 13 76
+ 0.496432 2 1 ack 40 ------- 1 3.0 0.0 13 76
- 0.496432 2 1 ack 40 ------- 1 3.0 0.0 13 76
+ 0.5 1 2 cbr 1000 ------- 2 1.0 2.0 50 78
- 0.5 1 2 cbr 1000 ------- 2 1.0 2.0 50 78
r 0.502464 2 1 ack 40 ------- 1 3.0 0.0 8 70
+ 0.502464 1 0 ack 40 ------- 1 3.0 0.0 8 70
- 0.502464 1 0 ack 40 ------- 1 3.0 0.0 8 70
r 0.5028 1 2 cbr 1000 ------- 2 1.0 2.0 49 77
r 0.503264 2 1 ack 40 ------- 1 3.0 0.0 9 71
+ 0.503264 1 0 ack 40 ------- 1 3.0 0.0 9 71
- 0.503264 1 0 ack 40 ------- 1 3.0 0.0 9 71
r 0.504064 2 1 ack 40 ------- 1 3.0 0.0 10 72
+ 0.504064 1 0 ack 40 ------- 1 3.0 0.0 10 72
- 0.504064 1 0 ack 40 ------- 1 3.0 0.0 10 72
r 0.504864 2 1 ack 40 ------- 1 3.0 0.0 11 74
+ 0.504864 1 0 ack 40 ------- 1 3.0 0.0 11 74
- 0.504864 1 0 ack 40 ------- 1 3.0 0.0 11 74
r 0.505664 2 1 ack 40 ------- 1 3.0 0.0 12 75
+ 0.505664 1 0 ack 40 ------- 1 3.0 0.0 12 75
- 0.505664 1 0 ack 40 ------- 1 3.0 0.0 12 75
r 0.506464 2 1 ack 40 ------- 1 3.0 0.0 13 76
+ 0.506464 1 0 ack 40 ------- 1 3.0 0.0 13 76
- 0.506464 1 0 ack 40 ------- 1 3.0 0.0 13 76
+ 0.508 1 2 cbr 1000 ------- 2 1.0 2.0 51 79
- 0.508 1 2 cbr 1000 ------- 2 1.0 2.0 51 79
r 0.5108 1 2 cbr 1000 ------- 2 1.0 2.0 50 78
r 0.512496 1 0 ack 40 ------- 1 3.0 0.0 8 70
+ 0.512496 0 1 tcp 1000 ------- 1 0.0 3.0 14 80
- 0.512496 0 1 tcp 1000 ------- 1 0.0 3.0 14 80
r 0.513296 1 0 ack 40 ------- 1 3.0 0.0 9 71
+ 0.513296 0 1 tcp 1000 ------- 1 0.0 3.0 15 81
- 0.513296 0 1 tcp 1000 ------- 1 0.0 3.0 15 81
r 0.514096 1 0 ack 40 ------- 1 3.0 0.0 10 72
+ 0.514096 0 1 tcp 1000 ------- 1 0.0 3.0 16 82
- 0.514096 0 1 tcp 1000 ------- 1 0.0 3.0 16 82
r 0.514896 1 0 ack 40 ------- 1 3.0 0.0 11 74
+ 0.514896 0 1 tcp 1000 ------- 1 0.0 3.0 17 83
- 0.514896 0 1 tcp 1000 ------- 1 0.0 3.0 17 83
r 0.515696 1 0 ack 40 ------- 1 3.0 0.0 12 75
+ 0.515696 0 1 tcp 1000 ------- 1 0.0 3.0 18 84
- 0.515696 0 1 tcp 1000 ------- 1 0.0 3.0 18 84
+ 0.516 1 2 cbr 1000 ------- 2 1.0 2.0 52 85
- 0.516 1 2 cbr 1000 ------- 2 1.0 2.0 52 85
r 0.516496 1 0 ack 40 ------- 1 3.0 0.0 13 76
+ 0.516496 0 1 tcp 1000 ------- 1 0.0 3.0 19 86
- 0.516496 0 1 tcp 1000 ------- 1 0.0 3.0 19 86
r 0.5188 1 2 cbr 1000 ------- 2 1.0 2.0 51 79
r 0.523296 0 1 tcp 1000 ------- 1 0.0 3.0 14 80
+ 0.523296 1 2 tcp 1000 ------- 1 0.0 3.0 14 80
- 0.523296 1 2 tcp 1000 ------- 1 0.0 3.0 14 80
+ 0.524 1 2 cbr 1000 ------- 2 1.0 2.0 53 87
r 0.524096 0 1 tcp 1000 ------- 1 0.0 3.0 15 81
+ 0.524096 1 2 tcp 1000 ------- 1 0.0 3.0 15 81
- 0.524096 1 2 cbr 1000 ------- 2 1.0 2.0 53 87
r 0.524896 0 1 tcp 1000 ------- 1 0.0 3.0 16 82
+ 0.524896 1 2 tcp 1000 ------- 1 0.0 3.0 16 82
- 0.524896 1 2 tcp 1000 ------- 1 0.0 3.0 15 81
r 0.525696 0 1 tcp 1000 ------- 1 0.0 3.0 17 83
+ 0.525696 1 2 tcp 1000 ------- 1 0.0 3.0 17 83
- 0.525696 1 2 tcp 1000 ------- 1 0.0 3.0 16 82
r 0.526496 0 1 tcp 1000 ------- 1 0.0 3.0 18 84
+ 0.526496 1 2 tcp 1000 ------- 1 0.0 3.0 18 84
- 0.526496 1 2 tcp 1000 ------- 1 0.0 3.0 17 83
r 0.5268 1 2 cbr 1000 ------- 2 1.0 2.0 52 85
r 0.527296 0 1 tcp 1000 ------- 1 0.0 3.0 19 86
+ 0.527296 1 2 tcp 1000 ------- 1 0.0 3.0 19 86
- 0.527296 1 2 tcp 1000 ------- 1 0.0 3.0 18 84
- 0.528096 1 2 tcp 1000 ------- 1 0.0 3.0 19 86
+ 0.532 1 2 cbr 1000 ------- 2 1.0 2.0 54 88
- 0.532 1 2 cbr 1000 ------- 2 1.0 2.0 54 88
r 0.534096 1 2 tcp 1000 ------- 1 0.0 3.0 14 80
+ 0.534096 2 3 tcp 1000 ------- 1 0.0 3.0 14 80
- 0.534096 2 3 tcp 1000 ------- 1 0.0 3.0 14 80
r 0.534896 1 2 cbr 1000 ------- 2 1.0 2.0 53 87
r 0.535696 1 2 tcp 1000 ------- 1 0.0 3.0 15 81
+ 0.535696 2 3 tcp 1000 ------- 1 0.0 3.0 15 81
- 0.535696 2 3 tcp 1000 ------- 1 0.0 3.0 15 81
r 0.536496 1 2 tcp 1000 ------- 1 0.0 3.0 16 82
+ 0.536496 2 3 tcp 1000 ------- 1 0.0 3.0 16 82
- 0.536496 2 3 tcp 1000 ------- 1 0.0 3.0 16 82
r 0.537296 1 2 tcp 1000 ------- 1 0.0 3.0 17 83
+ 0.537296 2 3 tcp 1000 ------- 1 0.0 3.0 17 83
- 0.537296 2 3 tcp 1000 ------- 1 0.0 3.0 17 83
r 0.538096 1 2 tcp 1000 ------- 1 0.0 3.0 18 84
+ 0.538096 2 3 tcp 1000 ------- 1 0.0 3.0 18 84
- 0.538096 2 3 tcp 1000 ------- 1 0.0 3.0 18 84
r 0.538896 1 2 tcp 1000 ------- 1 0.0 3.0 19 86
+ 0.538896 2 3 tcp 1000 ------- 1 0.0 3.0 19 86
- 0.538896 2 3 tcp 1000 ------- 1 0.0 3.0 19 86
+ 0.54 1 2 cbr 1000 ------- 2 1.0 2.0 55 89
- 0.54 1 2 cbr 1000 ------- 2 1.0 2.0 55 89
r 0.5428 1 2 cbr 1000 ------- 2 1.0 2.0 54 88
r 0.544896 2 3 tcp 1000 ------- 1 0.0 3.0 14 80
+ 0.544896 3 2 ack 40 ------- 1 3.0 0.0 14 90
- 0.544896 3 2 ack 40 ------- 1 3.0 0.0 14 90
r 0.546496 2 3 tcp 1000 ------- 1 0.0 3.0 15 81
+ 0.546496 3 2 ack 40 ------- 1 3.0 0.0 15 91
- 0.546496 3 2 ack 40 ------- 1 3.0 0.0 15 91
r 0.547296 2 3 tcp 1000 ------- 1 0.0 3.0 16 82
+ 0.547296 3 2 ack 40 ------- 1 3.0 0.0 16 92
- 0.547296 3 2 ack 40 ------- 1 3.0 0.0 16 92
+ 0.548 1 2 cbr 1000 ------- 2 1.0 2.0 56 93
- 0.548 1 2 cbr 1000 ------- 2 1.0 2.0 56 93
r 0.548096 2 3 tcp 1000 ------- 1 0.0 3.0 17 83
+ 0.548096 3 2 ack 40 ------- 1 3.0 0.0 17 94
- 0.548096 3 2 ack 40 ------- 1 3.0 0.0 17 94
r 0.548896 2 3 tcp 1000 ------- 1 0.0 3.0 18 84
+ 0.548896 3 2 ack 40 ------- 1 3.0 0.0 18 95
- 0.548896 3 2 ack 40 ------- 1 3.0 0.0 18 95
r 0.549696 2 3 tcp 1000 ------- 1 0.0 3.0 19 86
+ 0.549696 3 2 ack 40 ------- 1 3.0 0.0 19 96
- 0.549696 3 2 ack 40 ------- 1 3.0 0.0 19 96
r 0.5508 1 2 cbr 1000 ------- 2 1.0 2.0 55 89
r 0.554928 3 2 ack 40 ------- 1 3.0 0.0 14 90
+ 0.554928 2 1 ack 40 ------- 1 3.0 0.0 14 90
- 0.554928 2 1 ack 40 ------- 1 3.0 0.0 14 90
+ 0.556 1 2 cbr 1000 ------- 2 1.0 2.0 57 97
- 0.556 1 2 cbr 1000 ------- 2 1.0 2.0 57 97
r 0.556528 3 2 ack 40 ------- 1 3.0 0.0 15 91
+ 0.556528 2 1 ack 40 ------- 1 3.0 0.0 15 91
- 0.556528 2 1 ack 40 ------- 1 3.0 0.0 15 91
r 0.557328 3 2 ack 40 ------- 1 3.0 0.0 16 92
+ 0.557328 2 1 ack 40 ------- 1 3.0 0.0 16 92
- 0.557328 2 1 ack 40 ------- 1 3.0 0.0 16 92
r 0.558128 3 2 ack 40 ------- 1 3.0 0.0 17 94
+ 0.558128 2 1 ack 40 ------- 1 3.0 0.0 17 94
- 0.558128 2 1 ack 40 ------- 1 3.0 0.0 17 94
r 0.5588 1 2 cbr 1000 ------- 2 1.0 2.0 56 93
r 0.558928 3 2 ack 40 ------- 1 3.0 0.0 18 95
+ 0.558928 2 1 ack 40 ------- 1 3.0 0.0 18 95
- 0.558928 2 1 ack 40 ------- 1 3.0 0.0 18 95
r 0.559728 3 2 ack 40 ------- 1 3.0 0.0 19 96
+ 0.559728 2 1 ack 40 ------- 1 3.0 0.0 19 96
- 0.559728 2 1 ack 40 ------- 1 3.0 0.0 19 96
+ 0.564 1 2 cbr 1000 ------- 2 1.0 2.0 58 98
- 0.564 1 2 cbr 1000 ------- 2 1.0 2.0 58 98
r 0.56496 2 1 ack 40 ------- 1 3.0 0.0 14 90
+ 0.56496 1 0 ack 40 ------- 1 3.0 0.0 14 90
- 0.56496 1 0 ack 40 ------- 1 3.0 0.0 14 90
r 0.56656 2 1 ack 40 ------- 1 3.0 0.0 15 91
+ 0.56656 1 0 ack 40 ------- 1 3.0 0.0 15 91
- 0.56656 1 0 ack 40 ------- 1 3.0 0.0 15 91
r 0.5668 1 2 cbr 1000 ------- 2 1.0 2.0 57 97
r 0.56736 2 1 ack 40 ------- 1 3.0 0.0 16 92
+ 0.56736 1 0 ack 40 ------- 1 3.0 0.0 16 92
- 0.56736 1 0 ack 40 ------- 1 3.0 0.0 16 92
r 0.56816 2 1 ack 40 ------- 1 3.0 0.0 17 94
+ 0.56816 1 0 ack 40 ------- 1 3.0 0.0 17 94
- 0.56816 1 0 ack 40 ------- 1 3.0 0.0 17 94
r 0.56896 2 1 ack 40 ------- 1 3.0 0.0 18 95
+ 0.56896 1 0 ack 40 ------- 1 3.0 0.0 18 95
- 0.56896 1 0 ack 40 ------- 1 3.0 0.0 18 95
r 0.56976 2 1 ack 40 ------- 1 3.0 0.0 19 96
+ 0.56976 1 0 ack 40 ------- 1 3.0 0.0 19 96
- 0.56976 1 0 ack 40 ------- 1 3.0 0.0 19 96
+ 0.572 1 2 cbr 1000 ------- 2 1.0 2.0 59 99
- 0.572 1 2 cbr 1000 ------- 2 1.0 2.0 59 99
r 0.5748 1 2 cbr 1000 ------- 2 1.0 2.0 58 98
r 0.574992 1 0 ack 40 ------- 1 3.0 0.0 14 90
+ 0.574992 0 1 tcp 1000 ------- 1 0.0 3.0 20 100
- 0.574992 0 1 tcp 1000 ------- 1 0.0 3.0 20 100
+ 0.574992 0 1 tcp 1000 ------- 1 0.0 3.0 21 101
- 0.575792 0 1 tcp 1000 ------- 1 0.0 3.0 21 101
r 0.576592 1 0 ack 40 ------- 1 3.0 0.0 15 91
+ 0.576592 0 1 tcp 1000 ------- 1 0.0 3.0 22 102
+ 0.576592 0 1 tcp 1000 ------- 1 0.0 3.0 23 103
- 0.576592 0 1 tcp 1000 ------- 1 0.0 3.0 22 102
r 0.577392 1 0 ack 40 ------- 1 3.0 0.0 16 92
+ 0.577392 0 1 tcp 1000 ------- 1 0.0 3.0 24 104
+ 0.577392 0 1 tcp 1000 ------- 1 0.0 3.0 25 105
- 0.577392 0 1 tcp 1000 ------- 1 0.0 3.0 23 103
r 0.578192 1 0 ack 40 ------- 1 3.0 0.0 17 94
+ 0.578192 0 1 tcp 1000 ------- 1 0.0 3.0 26 106
+ 0.578192 0 1 tcp 1000 ------- 1 0.0 3.0 27 107
- 0.578192 0 1 tcp 1000 ------- 1 0.0 3.0 24 104
r 0.578992 1 0 ack 40 ------- 1 3.0 0.0 18 95
+ 0.578992 0 1 tcp 1000 ------- 1 0.0 3.0 28 108
+ 0.578992 0 1 tcp 1000 ------- 1 0.0 3.0 29 109
- 0.578992 0 1 tcp 1000 ------- 1 0.0 3.0 25 105
r 0.579792 1 0 ack 40 ------- 1 3.0 0.0 19 96
+ 0.579792 0 1 tcp 1000 ------- 1 0.0 3.0 30 110
+ 0.579792 0 1 tcp 1000 ------- 1 0.0 3.0 31 111
- 0.579792 0 1 tcp 1000 ------- 1 0.0 3.0 26 106
+ 0.58 1 2 cbr 1000 ------- 2 1.0 2.0 60 112
- 0.58 1 2 cbr 1000 ------- 2 1.0 2.0 60 112
- 0.580592 0 1 tcp 1000 ------- 1 0.0 3.0 27 107
- 0.581392 0 1 tcp 1000 ------- 1 0.0 3.0 28 108
- 0.582192 0 1 tcp 1000 ------- 1 0.0 3.0 29 109
r 0.5828 1 2 cbr 1000 ------- 2 1.0 2.0 59 99
- 0.582992 0 1 tcp 1000 ------- 1 0.0 3.0 30 110
- 0.583792 0 1 tcp 1000 ------- 1 0.0 3.0 31 111
r 0.585792 0 1 tcp 1000 ------- 1 0.0 3.0 20 100
+ 0.585792 1 2 tcp 1000 ------- 1 0.0 3.0 20 100
- 0.585792 1 2 tcp 1000 ------- 1 0.0 3.0 20 100
r 0.586592 0 1 tcp 1000 ------- 1 0.0 3.0 21 101
+ 0.586592 1 2 tcp 1000 ------- 1 0.0 3.0 21 101
- 0.586592 1 2 tcp 1000 ------- 1 0.0 3.0 21 101
r 0.587392 0 1 tcp 1000 ------- 1 0.0 3.0 22 102
+ 0.587392 1 2 tcp 1000 ------- 1 0.0 3.0 22 102
- 0.587392 1 2 tcp 1000 ------- 1 0.0 3.0 22 102
+ 0.588 1 2 cbr 1000 ------- 2 1.0 2.0 61 113
r 0.588192 0 1 tcp 1000 ------- 1 0.0 3.0 23 103
+ 0.588192 1 2 tcp 1000 ------- 1 0.0 3.0 23 103
- 0.588192 1 2 cbr 1000 ------- 2 1.0 2.0 61 113
r 0.588992 0 1 tcp 1000 ------- 1 0.0 3.0 24 104
+ 0.588992 1 2 tcp 1000 ------- 1 0.0 3.0 24 104
- 0.588992 1 2 tcp 1000 ------- 1 0.0 3.0 23 103
r 0.589792 0 1 tcp 1000 ------- 1 0.0 3.0 25 105
+ 0.589792 1 2 tcp 1000 ------- 1 0.0 3.0 25 105
- 0.589792 1 2 tcp 1000 ------- 1 0.0 3.0 24 104
r 0.590592 0 1 tcp 1000 ------- 1 0.0 3.0 26 106
+ 0.590592 1 2 tcp 1000 ------- 1 0.0 3.0 26 106
- 0.590592 1 2 tcp 1000 ------- 1 0.0 3.0 25 105
r 0.5908 1 2 cbr 1000 ------- 2 1.0 2.0 60 112
r 0.591392 0 1 tcp 1000 ------- 1 0.0 3.0 27 107
+ 0.591392 1 2 tcp 1000 ------- 1 0.0 3.0 27 107
- 0.591392 1 2 tcp 1000 ------- 1 0.0 3.0 26 106
r 0.592192 0 1 tcp 1000 ------- 1 0.0 3.0 28 108
+ 0.592192 1 2 tcp 1000 ------- 1 0.0 3.0 28 108
- 0.592192 1 2 tcp 1000 ------- 1 0.0 3.0 27 107
r 0.592992 0 1 tcp 1000 ------- 1 0.0 3.0 29 109
+ 0.592992 1 2 tcp 1000 ------- 1 0.0 3.0 29 109
- 0.592992 1 2 tcp 1000 ------- 1 0.0 3.0 28 108
r 0.593792 0 1 tcp 1000 ------- 1 0.0 3.0 30 110
+ 0.593792 1 2 tcp 1000 ------- 1 0.0 3.0 30 110
- 0.593792 1 2 tcp 1000 ------- 1 0.0 3.0 29 109
r 0.594592 0 1 tcp 1000 ------- 1 0.0 3.0 31 111
+ 0.594592 1 2 tcp 1000 ------- 1 0.0 3.0 31 111
- 0.594592 1 2 tcp 1000 ------- 1 0.0 3.0 30 110
- 0.595392 1 2 tcp 1000 ------- 1 0.0 3.0 31 111
+ 0.596 1 2 cbr 1000 ------- 2 1.0 2.0 62 114
- 0.596192 1 2 cbr 1000 ------- 2 1.0 2.0 62 114
r 0.596592 1 2 tcp 1000 ------- 1 0.0 3.0 20 100
+ 0.596592 2 3 tcp 1000 ------- 1 0.0 3.0 20 100
- 0.596592 2 3 tcp 1000 ------- 1 0.0 3.0 20 100
r 0.597392 1 2 tcp 1000 ------- 1 0.0 3.0 21 101
+ 0.597392 2 3 tcp 1000 ------- 1 0.0 3.0 21 101
- 0.597392 2 3 tcp 1000 ------- 1 0.0 3.0 21 101
r 0.598192 1 2 tcp 1000 ------- 1 0.0 3.0 22 102
+ 0.598192 2 3 tcp 1000 ------- 1 0.0 3.0 22 102
- 0.598192 2 3 tcp 1000 ------- 1 0.0 3.0 22 102
r 0.598992 1 2 cbr 1000 ------- 2 1.0 2.0 61 113
r 0.599792 1 2 tcp 1000 ------- 1 0.0 3.0 23 103
+ 0.599792 2 3 tcp 1000 ------- 1 0.0 3.0 23 103
- 0.599792 2 3 tcp 1000 ------- 1 0.0 3.0 23 103
r 0.600592 1 2 tcp 1000 ------- 1 0.0 3.0 24 104
+ 0.600592 2 3 tcp 1000 ------- 1 0.0 3.0 24 104
- 0.600592 2 3 tcp 1000 ------- 1 0.0 3.0 24 104
r 0.601392 1 2 tcp 1000 ------- 1 0.0 3.0 25 105
+ 0.601392 2 3 tcp 1000 ------- 1 0.0 3.0 25 105
- 0.601392 2 3 tcp 1000 ------- 1 0.0 3.0 25 105
r 0.602192 1 2 tcp 1000 ------- 1 0.0 3.0 26 106
+ 0.602192 2 3 tcp 1000 ------- 1 0.0 3.0 26 106
- 0.602192 2 3 tcp 1000 ------- 1 0.0 3.0 26 106
r 0.602992 1 2 tcp 1000 ------- 1 0.0 3.0 27 107
+ 0.602992 2 3 tcp 1000 ------- 1 0.0 3.0 27 107
- 0.602992 2 3 tcp 1000 ------- 1 0.0 3.0 27 107
r 0.603792 1 2 tcp 1000 ------- 1 0.0 3.0 28 108
+ 0.603792 2 3 tcp 1000 ------- 1 0.0 3.0 28 108
- 0.603792 2 3 tcp 1000 ------- 1 0.0 3.0 28 108
+ 0.604 1 2 cbr 1000 ------- 2 1.0 2.0 63 115
- 0.604 1 2 cbr 1000 ------- 2 1.0 2.0 63 115
r 0.604592 1 2 tcp 1000 ------- 1 0.0 3.0 29 109
+ 0.604592 2 3 tcp 1000 ------- 1 0.0 3.0 29 109
- 0.604592 2 3 tcp 1000 ------- 1 0.0 3.0 29 109
r 0.605392 1 2 tcp 1000 ------- 1 0.0 3.0 30 110
+ 0.605392 2 3 tcp 1000 ------- 1 0.0 3.0 30 110
- 0.605392 2 3 tcp 1000 ------- 1 0.0 3.0 30 110
r 0.606192 1 2 tcp 1000 ------- 1 0.0 3.0 31 111
+ 0.606192 2 3 tcp 1000 ------- 1 0.0 3.0 31 111
- 0.606192 2 3 tcp 1000 ------- 1 0.0 3.0 31 111
r 0.606992 1 2 cbr 1000 ------- 2 1.0 2.0 62 114
r 0.607392 2 3 tcp 1000 ------- 1 0.0 3.0 20 100
+ 0.607392 3 2 ack 40 ------- 1 3.0 0.0 20 116